 Q-Chem 5.0, Q-Chem, Inc., Pleasanton, CA (2017)
 Q-Chem 5.0.2 for Intel X86 EM64T Linux

User input:
--------------------------------------------------------------
$molecule
-3 1
C        0.1415324700    0.7816846136   -1.6865120263
C        0.4898078303    0.9955592315   -3.1693852003
O        0.2726716143    2.1526937122   -3.6254330378
O        0.9473776637    0.0304573499   -3.8329443863
C        0.5448558620   -0.5693422914   -1.1053302314
H       -0.9409415034    0.9339613606   -1.6014222488
H        0.6039505764    1.5992773770   -1.1235525966
C        0.2301744986   -0.7988496839    0.3777139377
H        1.6230763654   -0.7202299353   -1.2257527093
H        0.0475978157   -1.3722009797   -1.6615896203
C       -1.2634181188   -0.6699236547    0.7012913302
H       -1.6740633433    0.2984587150    0.4003083751
H       -1.4053923735   -0.7903110144    1.7791425288
H       -1.8176742892   -1.4617046186    0.1858198184
O        0.7682984315   -1.9284370036    0.8656253454
O        0.9142892660    0.3741130715    1.0699556270
O        1.2476118799   -0.1157124467    2.3736098489
H        1.2236713191   -1.1052083421    2.1012789825
O       -0.8513002830    0.5245318498    4.2627800277
H       -0.1742334300    0.2862405062    3.6066697127
O       -1.1420788326    1.9243554631    3.9122038621
$end

$rem
jobtype               freq
method                wb97x-v
basis                 def2-tzvpd
symmetry              off
sym_ignore            true
incdft                false
incfock               0
!scf_algorithm        diis_gdm
scf_convergence       8
thresh                14
unrestricted          true
!purecart             112
max_scf_cycles        1000
geom_opt_max_cycles   500
geom_opt_dmax         100
geom_opt_tol_gradient 10
solvent_method        pcm
ideriv                1
rpath_tol_displacement 1000
rpath_max_cycles      100
rpath_direction       1
scf_guess             read
$end

$pcm
theory              cosmo
method              iswig
Radii               bondi
vdwScale            1.20
hpoints             110
heavypoints         110
$end

$solvent
dielectric 78.400000
$end

--------------------------------------------------------------

   17    -722.8072640856      6.98E-09 Convergence criterion met
 Total energy in the final basis set = -722.80726409
   16    -722.8072630998      7.24E-09 Convergence criterion met
 Total energy in the final basis set = -722.80726310
   15    -722.8072631128      5.56E-09 Convergence criterion met
 Total energy in the final basis set = -722.80726311
   14    -722.8072630951      8.49E-09 Convergence criterion met
 Total energy in the final basis set = -722.80726310
   15    -722.8072631151      5.70E-09 Convergence criterion met
 Total energy in the final basis set = -722.80726312
   14    -722.8072632479      8.43E-09 Convergence criterion met
 Total energy in the final basis set = -722.80726325
   15    -722.8072632266      5.80E-09 Convergence criterion met
 Total energy in the final basis set = -722.80726323
   14    -722.8072635124      8.31E-09 Convergence criterion met
 Total energy in the final basis set = -722.80726367
   16    -722.8072636681      7.73E-09 Convergence criterion met
 Total energy in the final basis set = -722.80726367
   17    -722.8072640629      1.10E-09 Convergence criterion met
 Total energy in the final basis set = -722.80726406
   17    -722.8072640068      8.40E-10 Convergence criterion met
 Total energy in the final basis set = -722.80726401
   17    -722.8072635911      1.04E-09 Convergence criterion met
 Total energy in the final basis set = -722.80726359
   15    -722.8072636927      4.62E-09 Convergence criterion met
 Total energy in the final basis set = -722.80726369
   17    -722.8072640455      1.07E-09 Convergence criterion met
 Total energy in the final basis set = -722.80726405
   16    -722.8072640396      9.60E-09 Convergence criterion met
 Total energy in the final basis set = -722.80726404

                    Orbital Energies (a.u.)
 --------------------------------------------------------------

 Alpha MOs
 -- Occupied --
-19.226 -19.223 -19.187 -19.138 -19.135 -19.129 -19.116 -10.338
-10.329 -10.243 -10.237 -10.231  -1.219  -1.140  -1.121  -1.061
 -1.045  -0.968  -0.881  -0.868  -0.823  -0.756  -0.656  -0.601
 -0.598  -0.562  -0.555  -0.548  -0.527  -0.515  -0.507  -0.501
 -0.493  -0.463  -0.457  -0.448  -0.445  -0.435  -0.425  -0.416
 -0.401  -0.345  -0.344  -0.336  -0.330  -0.325  -0.300  -0.291
 -0.265

 Beta MOs
 -- Occupied --
-19.226 -19.223 -19.187 -19.138 -19.135 -19.129 -19.116 -10.338
-10.329 -10.243 -10.237 -10.231  -1.219  -1.140  -1.121  -1.061
 -1.045  -0.968  -0.881  -0.868  -0.823  -0.756  -0.656  -0.601
 -0.598  -0.562  -0.555  -0.548  -0.527  -0.515  -0.507  -0.501
 -0.493  -0.463  -0.457  -0.448  -0.445  -0.435  -0.425  -0.416
 -0.401  -0.345  -0.344  -0.336  -0.330  -0.325  -0.300  -0.291
 -0.265

          Ground-State Mulliken Net Atomic Charges

     Atom                 Charge (a.u.)    Spin (a.u.)
  --------------------------------------------------------
      1 C                    -0.188054      -0.000000
      2 C                    -0.019058       0.000000
      3 O                    -0.716984      -0.000000
      4 O                    -0.693122      -0.000000
      5 C                    -0.232358       0.000000
      6 H                     0.201126      -0.000000
      7 H                     0.197116      -0.000000
      8 C                     1.065612      -0.000000
      9 H                     0.133039      -0.000000
     10 H                     0.218003      -0.000000
     11 C                    -1.273034       0.000000
     12 H                     0.243309       0.000000
     13 H                     0.200228      -0.000000
     14 H                     0.261453       0.000000
     15 O                    -0.973489       0.000000
     16 O                    -0.255112      -0.000000
     17 O                    -0.558429       0.000000
     18 H                     0.385178      -0.000000
     19 O                    -0.425910       0.000000
     20 H                     0.303870      -0.000000
     21 O                    -0.873383      -0.000000
  --------------------------------------------------------
  Sum of atomic charges =    -3.000000

                    Cartesian Multipole Moments
 -----------------------------------------------------------------
    Charge (ESU x 10^10)
               -14.4096
    Dipole Moment (Debye)
         X      -1.6726      Y     -10.0581      Z      -7.8355
       Tot      12.8592
    Quadrupole Moments (Debye-Ang)
        XX     -95.6003     XY      12.8135     YY    -125.9363
        XZ      34.2592     YZ     -10.3085     ZZ    -258.7740

             Standard Nuclear Orientation (Angstroms)
    I     Atom           X                Y                Z
 ----------------------------------------------------------------
    1      C       0.1415324700     0.7816846136    -1.6865120263
    2      C       0.4898078303     0.9955592315    -3.1693852003
    3      O       0.2726716143     2.1526937122    -3.6254330378
    4      O       0.9473776637     0.0304573499    -3.8329443863
    5      C       0.5448558620    -0.5693422914    -1.1053302314
    6      H      -0.9409415034     0.9339613606    -1.6014222488
    7      H       0.6039505764     1.5992773770    -1.1235525966
    8      C       0.2301744986    -0.7988496839     0.3777139377
    9      H       1.6230763654    -0.7202299353    -1.2257527093
   10      H       0.0475978157    -1.3722009797    -1.6615896203
   11      C      -1.2634181188    -0.6699236547     0.7012913302
   12      H      -1.6740633433     0.2984587150     0.4003083751
   13      H      -1.4053923735    -0.7903110144     1.7791425288
   14      H      -1.8176742892    -1.4617046186     0.1858198184
   15      O       0.7682984315    -1.9284370036     0.8656253454
   16      O       0.9142892660     0.3741130715     1.0699556270
   17      O       1.2476118799    -0.1157124467     2.3736098489
   18      H       1.2236713191    -1.1052083421     2.1012789825
   19      O      -0.8513002830     0.5245318498     4.2627800277
   20      H      -0.1742334300     0.2862405062     3.6066697127
   21      O      -1.1420788326     1.9243554631     3.9122038621
 ----------------------------------------------------------------

 Frequency:        32.88                  43.00                  49.73
 Force Cnst:      0.0067                 0.0125                 0.0071
 Red. Mass:      10.4921                11.4562                 4.8535
 IR Intens:       16.772                 11.021                 29.336
 Frequency:        61.83                  90.35                  98.19
 Force Cnst:      0.0129                 0.0222                 0.0193
 Red. Mass:       5.7345                 4.6152                 3.3910
 IR Intens:        6.729                  1.205                  3.637
 Frequency:       107.89                 142.01                 145.01
 Force Cnst:      0.0628                 0.0710                 0.0733
 Red. Mass:       9.1634                 5.9747                 5.9160
 IR Intens:        2.036                  7.225                 27.999
 Frequency:       196.34                 223.88                 254.33
 Force Cnst:      0.1791                 0.0847                 0.0512
 Red. Mass:       7.8866                 2.8673                 1.3440
 IR Intens:       10.033                  4.452                  1.970
 Frequency:       314.66                 336.19                 394.75
 Force Cnst:      0.2766                 0.1884                 0.3801
 Red. Mass:       4.7417                 2.8293                 4.1397
 IR Intens:       46.171                 15.332                 78.184
 Frequency:       423.34                 492.00                 552.48
 Force Cnst:      0.5141                 0.5867                 0.7003
 Red. Mass:       4.8689                 4.1135                 3.8942
 IR Intens:        3.951                 29.524                 25.738
 Frequency:       572.25                 590.38                 640.00
 Force Cnst:      0.2059                 0.3949                 1.0342
 Red. Mass:       1.0674                 1.9232                 4.2856
 IR Intens:      124.719                 19.040                 92.306
 Frequency:       678.42                 721.36                 787.53
 Force Cnst:      1.6185                 1.4939                 0.6367
 Red. Mass:       5.9686                 4.8727                 1.7424
 IR Intens:       87.523                 55.983                 15.184
 Frequency:       875.84                 893.72                 925.20
 Force Cnst:      1.0060                 0.5978                 7.8082
 Red. Mass:       2.2259                 1.2703                15.4820
 IR Intens:      141.337                 75.840                 11.369
 Frequency:       929.44                 958.73                1014.01
 Force Cnst:      2.0193                 0.9397                 2.2671
 Red. Mass:       3.9674                 1.7352                 3.7423
 IR Intens:       29.726                  2.599                 28.211
 Frequency:      1031.62                1090.52                1103.96
 Force Cnst:      1.4263                 1.6836                 1.8150
 Red. Mass:       2.2747                 2.4028                 2.5277
 IR Intens:       11.046                 31.760                 26.515
 Frequency:      1172.71                1235.84                1252.50
 Force Cnst:      1.4868                 1.4349                 1.9354
 Red. Mass:       1.8349                 1.5946                 2.0940
 IR Intens:      102.975                138.625                 52.271
 Frequency:      1294.89                1315.72                1358.23
 Force Cnst:      2.2584                 1.1953                 1.1738
 Red. Mass:       2.2861                 1.1719                 1.0800
 IR Intens:      134.518                 29.502                 48.960
 Frequency:      1377.24                1388.66                1434.03
 Force Cnst:      2.3305                 1.5417                 4.0792
 Red. Mass:       2.0854                 1.3569                 3.3667
 IR Intens:      192.486                 56.352                304.445
 Frequency:      1453.06                1465.46                1466.93
 Force Cnst:      1.6713                 1.3635                 1.3987
 Red. Mass:       1.3435                 1.0776                 1.1032
 IR Intens:       44.372                  8.781                111.607
 Frequency:      1476.21                1501.24                1580.08
 Force Cnst:      1.3477                 1.6986                14.6866
 Red. Mass:       1.0497                 1.2792                 9.9841
 IR Intens:        1.578                304.026               1235.806
 Frequency:      2773.10                3046.14                3056.72
 Force Cnst:      4.8200                 5.6691                 5.8326
 Red. Mass:       1.0638                 1.0370                 1.0595
 IR Intens:      865.527                 29.982                 27.726
 Frequency:      3061.75                3091.84                3111.06
 Force Cnst:      5.8641                 6.1976                 6.2900
 Red. Mass:       1.0617                 1.1004                 1.1030
 IR Intens:       55.670                  8.334                 95.206
 Frequency:      3120.68                3132.35                3643.20
 Force Cnst:      6.3214                 6.3744                 8.3654
 Red. Mass:       1.1017                 1.1027                 1.0697
 IR Intens:       55.840                 48.227                594.611

 STANDARD THERMODYNAMIC QUANTITIES AT   298.15 K  AND     1.00 ATM

   This Molecule has  0 Imaginary Frequencies
   Zero point vibrational energy:       93.753 kcal/mol

   Atom    1 Element C  Has Mass   12.00000
   Atom    2 Element C  Has Mass   12.00000
   Atom    3 Element O  Has Mass   15.99491
   Atom    4 Element O  Has Mass   15.99491
   Atom    5 Element C  Has Mass   12.00000
   Atom    6 Element H  Has Mass    1.00783
   Atom    7 Element H  Has Mass    1.00783
   Atom    8 Element C  Has Mass   12.00000
   Atom    9 Element H  Has Mass    1.00783
   Atom   10 Element H  Has Mass    1.00783
   Atom   11 Element C  Has Mass   12.00000
   Atom   12 Element H  Has Mass    1.00783
   Atom   13 Element H  Has Mass    1.00783
   Atom   14 Element H  Has Mass    1.00783
   Atom   15 Element O  Has Mass   15.99491
   Atom   16 Element O  Has Mass   15.99491
   Atom   17 Element O  Has Mass   15.99491
   Atom   18 Element H  Has Mass    1.00783
   Atom   19 Element O  Has Mass   15.99491
   Atom   20 Element H  Has Mass    1.00783
   Atom   21 Element O  Has Mass   15.99491
   Molecular Mass:   181.034840 amu
   Principal axes and moments of inertia in amu*Bohr^2:
                             1           2           3
    Eigenvalues --     1205.86330  5051.63244  5667.19813
          X              -0.14232    -0.35367     0.92448
          Y              -0.04712     0.93535     0.35057
          Z               0.98870    -0.00634     0.14978
   Rotational Symmetry Number is   1
   The Molecule is an Asymmetric Top
   Translational Enthalpy:        0.889 kcal/mol
   Rotational Enthalpy:           0.889 kcal/mol
   Vibrational Enthalpy:        101.001 kcal/mol
   gas constant (RT):             0.592 kcal/mol
   Translational Entropy:        41.487  cal/mol.K
   Rotational Entropy:           31.912  cal/mol.K
   Vibrational Entropy:          50.852  cal/mol.K

   Total Enthalpy:              103.371 kcal/mol
   Total Entropy:               124.252  cal/mol.K

 Total job time:  81799.68s(wall), 1101837.72s(cpu)
        *  Thank you very much for using Q-Chem.  Have a nice day.  *
