 Q-Chem 5.0, Q-Chem, Inc., Pleasanton, CA (2017)
 Q-Chem 5.0.2 for Intel X86 EM64T Linux

User input:
--------------------------------------------------------------
$molecule
-2 1
C       -2.6789969502    0.9766734932   -0.9087165815
H       -2.0287318318    1.7883805570   -1.2440821134
H       -3.4459154986    0.8031331201   -1.6676498011
H       -3.1644714512    1.2672408383    0.0270070661
C       -1.8577507274   -0.3087167476   -0.7572009318
C        1.2207340169   -0.7593837065    0.2601844391
H        1.2041294179   -0.5200145138   -0.8060079335
H        1.7294449816   -1.7187134956    0.3967779024
C        1.9035057068    0.3302576388    1.0699873610
H        1.8641254168    0.0749638759    2.1360974610
H        1.3692591379    1.2779480781    0.9549557548
C        3.3779500008    0.5633401942    0.7050149350
O       -0.9223032825    0.1016131918    0.3513430279
O       -2.7387143788   -1.2895665326   -0.1596743544
H       -2.3385606605   -2.1348334705   -0.3998045347
O       -1.2502113578   -0.7560728050   -1.8112542904
O        3.9400710278    1.5470398758    1.2563181874
O        3.9245828999   -0.2367821770   -0.0971130857
O       -0.1123143695   -1.0158051368    0.7005821710
$end

$rem
jobtype               freq
method                wb97x-v
basis                 def2-tzvpd
symmetry              off
sym_ignore            true
incdft                false
incfock               0
!scf_algorithm        diis_gdm
scf_convergence       8
thresh                14
!purecart             112
max_scf_cycles        1000
geom_opt_max_cycles   500
geom_opt_dmax         100
geom_opt_tol_gradient 10
solvent_method        pcm
ideriv                1
rpath_tol_displacement 1000
rpath_max_cycles      100
rpath_direction       1
!scf_guess            read
scf_guess             read
$end

$pcm
theory              cosmo
method              iswig
Radii               bondi
vdwScale            1.20
hpoints             110
heavypoints         110
$end

$solvent
dielectric 78.400000
$end

--------------------------------------------------------------

   17    -646.9663126300      2.68E-09 Convergence criterion met
 Total energy in the final basis set = -646.96631263
   14    -646.9663116425      4.62E-09 Convergence criterion met
 Total energy in the final basis set = -646.96631164
   13    -646.9663116293      9.13E-09 Convergence criterion met
 Total energy in the final basis set = -646.96631163
   14    -646.9663116968      4.82E-09 Convergence criterion met
 Total energy in the final basis set = -646.96631170
   13    -646.9663117389      7.69E-09 Convergence criterion met
 Total energy in the final basis set = -646.96631174
   14    -646.9663115555      4.67E-09 Convergence criterion met
 Total energy in the final basis set = -646.96631156
   13    -646.9663116054      7.85E-09 Convergence criterion met
 Total energy in the final basis set = -646.96631161
   14    -646.9663123532      4.36E-09 Convergence criterion met
 Total energy in the final basis set = -646.96631202
   13    -646.9663122735      7.95E-09 Convergence criterion met
 Total energy in the final basis set = -646.96631227
   14    -646.9663118187      4.55E-09 Convergence criterion met
 Total energy in the final basis set = -646.96631182
   13    -646.9663120092      7.88E-09 Convergence criterion met
 Total energy in the final basis set = -646.96631201
   14    -646.9663121522      4.36E-09 Convergence criterion met
 Total energy in the final basis set = -646.96631215
   13    -646.9663121038      7.78E-09 Convergence criterion met
 Total energy in the final basis set = -646.96631210
   14    -646.9663123478      4.39E-09 Convergence criterion met
 Total energy in the final basis set = -646.96631235
   13    -646.9663123970      8.74E-09 Convergence criterion met
 Total energy in the final basis set = -646.96631240

                    Orbital Energies (a.u.)
 --------------------------------------------------------------

 Alpha MOs
 -- Occupied --
-19.245 -19.228 -19.187 -19.141 -19.139 -19.107 -10.371 -10.343
-10.294 -10.246 -10.237  -1.234  -1.145  -1.143  -1.050  -1.046
 -0.999  -0.868  -0.833  -0.736  -0.674  -0.618  -0.607  -0.579
 -0.574  -0.547  -0.535  -0.529  -0.515  -0.508  -0.486  -0.476
 -0.473  -0.460  -0.445  -0.419  -0.409  -0.368  -0.366  -0.348
 -0.335  -0.331  -0.314  -0.311

          Ground-State Mulliken Net Atomic Charges

     Atom                 Charge (a.u.)
  ----------------------------------------
      1 C                    -1.012304
      2 H                     0.232922
      3 H                     0.240954
      4 H                     0.220823
      5 C                     0.658617
      6 C                    -0.021750
      7 H                     0.122620
      8 H                     0.192912
      9 C                    -0.093382
     10 H                     0.206416
     11 H                     0.143377
     12 C                     0.123272
     13 O                    -0.248874
     14 O                    -0.535924
     15 H                     0.333683
     16 O                    -0.852923
     17 O                    -0.708965
     18 O                    -0.693094
     19 O                    -0.308381
  ----------------------------------------
  Sum of atomic charges =    -2.000000

                    Cartesian Multipole Moments
 -----------------------------------------------------------------
    Charge (ESU x 10^10)
                -9.6064
    Dipole Moment (Debye)
         X     -12.3090      Y      -0.3075      Z       1.8482
       Tot      12.4508
    Quadrupole Moments (Debye-Ang)
        XX    -169.6461     XY     -21.8984     YY     -79.0412
        XZ     -14.9304     YZ     -10.9401     ZZ     -89.1215

             Standard Nuclear Orientation (Angstroms)
    I     Atom           X                Y                Z
 ----------------------------------------------------------------
    1      C      -2.6789969502     0.9766734932    -0.9087165815
    2      H      -2.0287318318     1.7883805570    -1.2440821134
    3      H      -3.4459154986     0.8031331201    -1.6676498011
    4      H      -3.1644714512     1.2672408383     0.0270070661
    5      C      -1.8577507274    -0.3087167476    -0.7572009318
    6      C       1.2207340169    -0.7593837065     0.2601844391
    7      H       1.2041294179    -0.5200145138    -0.8060079335
    8      H       1.7294449816    -1.7187134956     0.3967779024
    9      C       1.9035057068     0.3302576388     1.0699873610
   10      H       1.8641254168     0.0749638759     2.1360974610
   11      H       1.3692591379     1.2779480781     0.9549557548
   12      C       3.3779500008     0.5633401942     0.7050149350
   13      O      -0.9223032825     0.1016131918     0.3513430279
   14      O      -2.7387143788    -1.2895665326    -0.1596743544
   15      H      -2.3385606605    -2.1348334705    -0.3998045347
   16      O      -1.2502113578    -0.7560728050    -1.8112542904
   17      O       3.9400710278     1.5470398758     1.2563181874
   18      O       3.9245828999    -0.2367821770    -0.0971130857
   19      O      -0.1123143695    -1.0158051368     0.7005821710
 ----------------------------------------------------------------

 Frequency:        38.58                  48.31                  61.00
 Force Cnst:      0.0089                 0.0096                 0.0123
 Red. Mass:      10.0939                 7.0166                 5.6183
 IR Intens:        2.554                  2.790                  2.421
 Frequency:        94.28                 124.90                 176.24
 Force Cnst:      0.0128                 0.0326                 0.0508
 Red. Mass:       2.4440                 3.5421                 2.7740
 IR Intens:       14.589                 26.504                  1.553
 Frequency:       202.45                 218.02                 235.89
 Force Cnst:      0.0592                 0.0389                 0.0554
 Red. Mass:       2.4506                 1.3896                 1.6895
 IR Intens:       33.216                  3.056                105.090
 Frequency:       310.65                 367.98                 415.87
 Force Cnst:      0.1619                 0.3220                 0.4808
 Red. Mass:       2.8479                 4.0360                 4.7183
 IR Intens:       14.007                  3.722                 16.218
 Frequency:       460.65                 482.02                 539.67
 Force Cnst:      0.6510                 0.7660                 0.8854
 Red. Mass:       5.2069                 5.5956                 5.1599
 IR Intens:       13.310                 19.720                 28.805
 Frequency:       574.83                 595.57                 641.16
 Force Cnst:      1.0663                 0.4156                 1.3649
 Red. Mass:       5.4771                 1.9885                 5.6353
 IR Intens:        9.212                  9.252                 22.721
 Frequency:       685.31                 709.45                 810.11
 Force Cnst:      1.2012                 1.5250                 1.0291
 Red. Mass:       4.3412                 5.1427                 2.6614
 IR Intens:      368.694                 32.628                129.611
 Frequency:       810.50                 937.75                 943.96
 Force Cnst:      0.8185                 2.3694                 1.4766
 Red. Mass:       2.1148                 4.5731                 2.8127
 IR Intens:      131.576                 10.372                146.952
 Frequency:       967.61                1069.49                1076.51
 Force Cnst:      1.6708                 2.7956                 1.5391
 Red. Mass:       3.0289                 4.1482                 2.2542
 IR Intens:       84.683                136.130                 77.133
 Frequency:      1087.92                1101.26                1112.89
 Force Cnst:      1.6414                 1.3291                 1.8754
 Red. Mass:       2.3537                 1.8601                 2.5700
 IR Intens:       27.438                210.257                 14.859
 Frequency:      1203.12                1242.42                1277.01
 Force Cnst:      2.1390                 1.2309                 1.3945
 Red. Mass:       2.5081                 1.3534                 1.4514
 IR Intens:      222.852                  1.800                 31.665
 Frequency:      1310.59                1364.75                1391.42
 Force Cnst:      1.1029                 1.5528                 1.6850
 Red. Mass:       1.0898                 1.4150                 1.4771
 IR Intens:        1.927                122.440                  0.394
 Frequency:      1430.48                1438.73                1457.19
 Force Cnst:      8.6988                 3.3080                 1.4821
 Red. Mass:       7.2152                 2.7124                 1.1847
 IR Intens:      355.121                465.952                 22.524
 Frequency:      1465.32                1470.96                1477.33
 Force Cnst:      1.3693                 1.3349                 1.4265
 Red. Mass:       1.0824                 1.0471                 1.1094
 IR Intens:       16.268                  3.728                 13.175
 Frequency:      1585.34                3059.88                3061.41
 Force Cnst:     15.3056                 5.8519                 5.7404
 Red. Mass:      10.3361                 1.0608                 1.0396
 IR Intens:     1288.193                 21.858                 32.420
 Frequency:      3077.87                3110.83                3136.90
 Force Cnst:      5.9065                 6.2569                 6.4192
 Red. Mass:       1.0582                 1.0974                 1.1072
 IR Intens:       45.857                 10.379                 43.154
 Frequency:      3138.66                3144.85                3819.13
 Force Cnst:      6.4043                 6.4303                 9.1526
 Red. Mass:       1.1034                 1.1035                 1.0650
 IR Intens:       55.498                 40.143                 57.259

 STANDARD THERMODYNAMIC QUANTITIES AT   298.15 K  AND     1.00 ATM

   This Molecule has  0 Imaginary Frequencies
   Zero point vibrational energy:       86.582 kcal/mol

   Atom    1 Element C  Has Mass   12.00000
   Atom    2 Element H  Has Mass    1.00783
   Atom    3 Element H  Has Mass    1.00783
   Atom    4 Element H  Has Mass    1.00783
   Atom    5 Element C  Has Mass   12.00000
   Atom    6 Element C  Has Mass   12.00000
   Atom    7 Element H  Has Mass    1.00783
   Atom    8 Element H  Has Mass    1.00783
   Atom    9 Element C  Has Mass   12.00000
   Atom   10 Element H  Has Mass    1.00783
   Atom   11 Element H  Has Mass    1.00783
   Atom   12 Element C  Has Mass   12.00000
   Atom   13 Element O  Has Mass   15.99491
   Atom   14 Element O  Has Mass   15.99491
   Atom   15 Element H  Has Mass    1.00783
   Atom   16 Element O  Has Mass   15.99491
   Atom   17 Element O  Has Mass   15.99491
   Atom   18 Element O  Has Mass   15.99491
   Atom   19 Element O  Has Mass   15.99491
   Molecular Mass:   164.032100 amu
   Principal axes and moments of inertia in amu*Bohr^2:
                             1           2           3
    Eigenvalues --      662.32387  4124.10687  4222.03452
          X               0.95832    -0.21553    -0.18755
          Y               0.16118     0.94984    -0.26800
          Z               0.23590     0.22660     0.94499
   Rotational Symmetry Number is   1
   The Molecule is an Asymmetric Top
   Translational Enthalpy:        0.889 kcal/mol
   Rotational Enthalpy:           0.889 kcal/mol
   Vibrational Enthalpy:         92.291 kcal/mol
   gas constant (RT):             0.592 kcal/mol
   Translational Entropy:        41.193  cal/mol.K
   Rotational Entropy:           30.823  cal/mol.K
   Vibrational Entropy:          38.196  cal/mol.K

   Total Enthalpy:               94.661 kcal/mol
   Total Entropy:               110.211  cal/mol.K

 Total job time:  44439.44s(wall), 621168.77s(cpu)
        *  Thank you very much for using Q-Chem.  Have a nice day.  *
