 Q-Chem 5.0, Q-Chem, Inc., Pleasanton, CA (2017)
 Q-Chem 5.0.2 for Intel X86 EM64T Linux

User input:
--------------------------------------------------------------
$molecule
-2 1
C       -2.8225510517   -0.2618823051   -0.5391408950
H       -2.6744407054    0.7640150360   -0.2013206952
H       -3.0691093246   -0.2737637464   -1.6008398496
H       -3.6559984767   -0.7010305381    0.0228195327
C       -1.5878305620   -1.0901187309   -0.2901253664
C        0.8805362365    1.4306082457    0.4517110448
H        0.3720105173    0.9456968238    1.2931224624
H        1.0809145548    2.4734323490    0.7294923784
C        2.1972052386    0.7187882653    0.1702449082
H        2.9087330088    1.0153175470    0.9539055693
H        2.6107680061    1.0569105373   -0.7842491299
C        2.1735864632   -0.8118045754    0.1953276416
O       -0.2167633937    0.2177507043   -1.2198616304
O       -1.1326140515   -0.9424786852    0.9776298846
H       -0.1637144676   -1.1880947256    1.0027857534
O       -1.3055013503   -2.0840709364   -0.9648635839
O        2.9160177659   -1.4153072101   -0.6139443353
O        1.4688900135   -1.3849122981    1.0853070357
O        0.0198615787    1.5309442429   -0.6680007254
$end

$rem
jobtype               freq
method                wb97x-v
basis                 def2-tzvpd
symmetry              off
sym_ignore            true
incdft                false
incfock               0
!scf_algorithm        diis_gdm
scf_convergence       8
thresh                14
!purecart             112
max_scf_cycles        1000
geom_opt_max_cycles   500
geom_opt_dmax         100
geom_opt_tol_gradient 10
solvent_method        pcm
ideriv                1
rpath_tol_displacement 1000
rpath_max_cycles      100
rpath_direction       1
!scf_guess            read
scf_guess             read
$end

$pcm
theory              cosmo
method              iswig
Radii               bondi
vdwScale            1.20
hpoints             110
heavypoints         110
$end

$solvent
dielectric 78.400000
$end

--------------------------------------------------------------

   17    -646.9597472788      8.71E-09 Convergence criterion met
 Total energy in the final basis set = -646.95974728
   17    -646.9597463926      8.70E-10 Convergence criterion met
 Total energy in the final basis set = -646.95974639
   16    -646.9597463908      5.71E-09 Convergence criterion met
 Total energy in the final basis set = -646.95974639
   15    -646.9597461729      7.76E-09 Convergence criterion met
 Total energy in the final basis set = -646.95974617
   16    -646.9597463605      5.83E-09 Convergence criterion met
 Total energy in the final basis set = -646.95974636
   15    -646.9597462357      7.05E-09 Convergence criterion met
 Total energy in the final basis set = -646.95974624
   16    -646.9597461789      5.27E-09 Convergence criterion met
 Total energy in the final basis set = -646.95974618
   16    -646.9597471627      9.50E-09 Convergence criterion met
 Total energy in the final basis set = -646.95974675
   16    -646.9597467210      4.19E-09 Convergence criterion met
 Total energy in the final basis set = -646.95974672
   16    -646.9597469185      3.85E-09 Convergence criterion met
 Total energy in the final basis set = -646.95974692
   15    -646.9597470167      7.32E-09 Convergence criterion met
 Total energy in the final basis set = -646.95974702
   15    -646.9597467050      7.67E-09 Convergence criterion met
 Total energy in the final basis set = -646.95974671
   16    -646.9597467260      6.60E-09 Convergence criterion met
 Total energy in the final basis set = -646.95974673
   15    -646.9597467539      6.77E-09 Convergence criterion met
 Total energy in the final basis set = -646.95974675
   16    -646.9597468113      5.67E-09 Convergence criterion met
 Total energy in the final basis set = -646.95974681

                    Orbital Energies (a.u.)
 --------------------------------------------------------------

 Alpha MOs
 -- Occupied --
-19.208 -19.196 -19.154 -19.145 -19.143 -19.142 -10.378 -10.346
-10.284 -10.245 -10.244  -1.184  -1.157  -1.147  -1.092  -1.053
 -0.924  -0.853  -0.846  -0.715  -0.687  -0.611  -0.585  -0.565
 -0.561  -0.555  -0.548  -0.526  -0.514  -0.504  -0.487  -0.479
 -0.474  -0.448  -0.443  -0.415  -0.398  -0.378  -0.355  -0.348
 -0.342  -0.332  -0.302  -0.269

          Ground-State Mulliken Net Atomic Charges

     Atom                 Charge (a.u.)
  ----------------------------------------
      1 C                    -0.839956
      2 H                     0.168900
      3 H                     0.215878
      4 H                     0.251876
      5 C                     0.769070
      6 C                    -0.206463
      7 H                     0.139895
      8 H                     0.230236
      9 C                    -0.105458
     10 H                     0.236131
     11 H                     0.137986
     12 C                     0.311371
     13 O                    -0.666468
     14 O                    -0.506043
     15 H                     0.327341
     16 O                    -0.665638
     17 O                    -0.710586
     18 O                    -0.771853
     19 O                    -0.316220
  ----------------------------------------
  Sum of atomic charges =    -2.000000

                    Cartesian Multipole Moments
 -----------------------------------------------------------------
    Charge (ESU x 10^10)
                -9.6064
    Dipole Moment (Debye)
         X      -5.9873      Y      10.8655      Z       6.0015
       Tot      13.7814
    Quadrupole Moments (Debye-Ang)
        XX     -96.2333     XY      13.0671     YY     -98.4367
        XZ       2.5250     YZ      -0.0230     ZZ     -86.6823

             Standard Nuclear Orientation (Angstroms)
    I     Atom           X                Y                Z
 ----------------------------------------------------------------
    1      C      -2.8225510517    -0.2618823051    -0.5391408950
    2      H      -2.6744407054     0.7640150360    -0.2013206952
    3      H      -3.0691093246    -0.2737637464    -1.6008398496
    4      H      -3.6559984767    -0.7010305381     0.0228195327
    5      C      -1.5878305620    -1.0901187309    -0.2901253664
    6      C       0.8805362365     1.4306082457     0.4517110448
    7      H       0.3720105173     0.9456968238     1.2931224624
    8      H       1.0809145548     2.4734323490     0.7294923784
    9      C       2.1972052386     0.7187882653     0.1702449082
   10      H       2.9087330088     1.0153175470     0.9539055693
   11      H       2.6107680061     1.0569105373    -0.7842491299
   12      C       2.1735864632    -0.8118045754     0.1953276416
   13      O      -0.2167633937     0.2177507043    -1.2198616304
   14      O      -1.1326140515    -0.9424786852     0.9776298846
   15      H      -0.1637144676    -1.1880947256     1.0027857534
   16      O      -1.3055013503    -2.0840709364    -0.9648635839
   17      O       2.9160177659    -1.4153072101    -0.6139443353
   18      O       1.4688900135    -1.3849122981     1.0853070357
   19      O       0.0198615787     1.5309442429    -0.6680007254
 ----------------------------------------------------------------

 Frequency:      -177.62                  56.13                  76.91
 Force Cnst:      0.1869                 0.0127                 0.0199
 Red. Mass:      10.0562                 6.8177                 5.6991
 IR Intens:      279.533                  6.067                  5.792
 Frequency:       102.94                 136.10                 149.55
 Force Cnst:      0.0448                 0.0508                 0.0544
 Red. Mass:       7.1711                 4.6519                 4.1281
 IR Intens:        1.223                 10.563                  6.187
 Frequency:       179.08                 203.30                 232.91
 Force Cnst:      0.1470                 0.0319                 0.1115
 Red. Mass:       7.7776                 1.3101                 3.4885
 IR Intens:       34.392                  7.473                 28.450
 Frequency:       294.48                 304.53                 378.66
 Force Cnst:      0.2865                 0.1807                 0.3149
 Red. Mass:       5.6073                 3.3071                 3.7274
 IR Intens:       79.078                 61.599                 21.684
 Frequency:       435.26                 462.05                 525.23
 Force Cnst:      0.3840                 0.4519                 0.5863
 Red. Mass:       3.4402                 3.5929                 3.6069
 IR Intens:        6.747                 21.984                105.386
 Frequency:       562.31                 589.80                 614.27
 Force Cnst:      0.6091                 0.7229                 1.2027
 Red. Mass:       3.2696                 3.5273                 5.4097
 IR Intens:        7.979                 34.288                 44.467
 Frequency:       700.69                 822.43                 846.11
 Force Cnst:      1.1101                 0.5759                 1.4197
 Red. Mass:       3.8376                 1.4452                 3.3659
 IR Intens:       22.066                302.480                 18.349
 Frequency:       899.45                 914.36                 941.73
 Force Cnst:      1.1313                 2.7871                 1.7639
 Red. Mass:       2.3733                 5.6580                 3.3757
 IR Intens:       17.782                  7.633                  8.586
 Frequency:      1017.35                1029.66                1033.04
 Force Cnst:      0.9441                 1.0289                 1.2603
 Red. Mass:       1.5483                 1.6471                 2.0045
 IR Intens:      105.470                 63.634                 33.221
 Frequency:      1079.76                1111.56                1220.86
 Force Cnst:      1.7360                 2.6327                 1.0916
 Red. Mass:       2.5273                 3.6165                 1.2431
 IR Intens:       36.097                 50.659                 23.535
 Frequency:      1236.52                1291.65                1338.18
 Force Cnst:      2.4480                 1.2313                 1.6720
 Red. Mass:       2.7174                 1.2527                 1.5847
 IR Intens:      447.369                  9.373                 43.054
 Frequency:      1379.59                1404.38                1421.65
 Force Cnst:      1.3778                 1.7075                 1.8380
 Red. Mass:       1.2287                 1.4694                 1.5435
 IR Intens:       44.276                 68.178                153.491
 Frequency:      1432.50                1438.27                1456.03
 Force Cnst:      1.8848                 2.5620                 1.3832
 Red. Mass:       1.5589                 2.1020                 1.1074
 IR Intens:       99.936                317.861                 29.699
 Frequency:      1468.32                1485.48                1578.94
 Force Cnst:      1.3458                 1.4509                12.7837
 Red. Mass:       1.0594                 1.1160                 8.7032
 IR Intens:        5.346                 24.625               1127.529
 Frequency:      1650.46                3035.78                3048.88
 Force Cnst:     11.7993                 5.7674                 5.8214
 Red. Mass:       7.3518                 1.0622                 1.0629
 IR Intens:      895.088                 48.617                107.487
 Frequency:      3055.41                3084.36                3110.84
 Force Cnst:      5.7444                 6.1821                 6.2398
 Red. Mass:       1.0444                 1.1030                 1.0944
 IR Intens:       27.563                 36.036                274.957
 Frequency:      3120.18                3138.86                3177.35
 Force Cnst:      6.1863                 6.3314                 6.5752
 Red. Mass:       1.0785                 1.0907                 1.1054
 IR Intens:     1646.659                 34.702                 25.837

 STANDARD THERMODYNAMIC QUANTITIES AT   298.15 K  AND     1.00 ATM

   This Molecule has  1 Imaginary Frequencies
   Zero point vibrational energy:       86.166 kcal/mol

   Atom    1 Element C  Has Mass   12.00000
   Atom    2 Element H  Has Mass    1.00783
   Atom    3 Element H  Has Mass    1.00783
   Atom    4 Element H  Has Mass    1.00783
   Atom    5 Element C  Has Mass   12.00000
   Atom    6 Element C  Has Mass   12.00000
   Atom    7 Element H  Has Mass    1.00783
   Atom    8 Element H  Has Mass    1.00783
   Atom    9 Element C  Has Mass   12.00000
   Atom   10 Element H  Has Mass    1.00783
   Atom   11 Element H  Has Mass    1.00783
   Atom   12 Element C  Has Mass   12.00000
   Atom   13 Element O  Has Mass   15.99491
   Atom   14 Element O  Has Mass   15.99491
   Atom   15 Element H  Has Mass    1.00783
   Atom   16 Element O  Has Mass   15.99491
   Atom   17 Element O  Has Mass   15.99491
   Atom   18 Element O  Has Mass   15.99491
   Atom   19 Element O  Has Mass   15.99491
   Molecular Mass:   164.032100 amu
   Principal axes and moments of inertia in amu*Bohr^2:
                             1           2           3
    Eigenvalues --     1129.87974  2172.26545  2652.99873
          X               0.98792    -0.08256    -0.13111
          Y               0.09248     0.99314     0.07149
          Z               0.12431    -0.08275     0.98879
   Rotational Symmetry Number is   1
   The Molecule is an Asymmetric Top
   Translational Enthalpy:        0.889 kcal/mol
   Rotational Enthalpy:           0.889 kcal/mol
   Vibrational Enthalpy:         91.421 kcal/mol
   gas constant (RT):             0.592 kcal/mol
   Translational Entropy:        41.193  cal/mol.K
   Rotational Entropy:           30.255  cal/mol.K
   Vibrational Entropy:          32.986  cal/mol.K

   Total Enthalpy:               93.791 kcal/mol
   Total Entropy:               104.434  cal/mol.K

 Total job time:  171414.27s(wall), 664066.81s(cpu)
        *  Thank you very much for using Q-Chem.  Have a nice day.  *
