 Q-Chem 5.0, Q-Chem, Inc., Pleasanton, CA (2017)
 Q-Chem 5.0.2 for Intel X86 EM64T Linux

User input:
--------------------------------------------------------------
$molecule
-2 1
C       -3.2014652847   -0.8016756431    0.6257216642
H       -3.1674949593    0.1604165326    1.1446936724
H       -4.0324006388   -0.8107585816   -0.0785651821
H       -3.3405854418   -1.5794970745    1.3807237201
C       -1.8954419061   -1.0200564271   -0.0959692282
C        1.0173866519    1.5828120549   -0.4300012103
H        0.1365246156    1.0036007990   -0.7396540435
H        0.6806818190    2.4017270601    0.2205053064
C        1.9833972047    0.7043363929    0.3730125233
H        1.5248333790    0.5203528251    1.3531576577
H        2.9134509067    1.2558079889    0.5368308066
C        2.3050942795   -0.6577176978   -0.2314107919
O        1.7002733733    1.2315078705   -2.6237539628
O       -0.8608450288   -1.0915319101    0.7089317304
H        0.0674659125   -1.2125396143    0.1887034835
O       -1.8157452858   -1.1132576276   -1.3143653298
O        3.4823399625   -0.9391796638   -0.5219359692
O        1.3307949122   -1.4802178655   -0.3672430914
O        1.5866701861    2.2073151914   -1.5496232123
$end

$rem
jobtype               freq
method                wb97x-v
basis                 def2-tzvpd
symmetry              off
sym_ignore            true
incdft                false
incfock               0
!scf_algorithm        diis_gdm
scf_convergence       8
thresh                14
!purecart             112
max_scf_cycles        1000
geom_opt_max_cycles   500
geom_opt_dmax         100
geom_opt_tol_gradient 10
solvent_method        pcm
ideriv                1
rpath_tol_displacement 1000
rpath_max_cycles      100
rpath_direction       1
!scf_guess            read
scf_guess             read
$end

$pcm
theory              cosmo
method              iswig
Radii               bondi
vdwScale            1.20
hpoints             110
heavypoints         110
$end

$solvent
dielectric 78.400000
$end

--------------------------------------------------------------

   17    -646.9744176813      9.61E-09 Convergence criterion met
 Total energy in the final basis set = -646.97441768
   17    -646.9744167116      1.05E-09 Convergence criterion met
 Total energy in the final basis set = -646.97441671
   15    -646.9744167274      5.42E-09 Convergence criterion met
 Total energy in the final basis set = -646.97441673
   16    -646.9744166990      4.59E-09 Convergence criterion met
 Total energy in the final basis set = -646.97441670
   15    -646.9744167341      5.77E-09 Convergence criterion met
 Total energy in the final basis set = -646.97441673
   16    -646.9744166460      4.40E-09 Convergence criterion met
 Total energy in the final basis set = -646.97441665
   15    -646.9744166682      5.72E-09 Convergence criterion met
 Total energy in the final basis set = -646.97441667
   17    -646.9744175988      1.11E-09 Convergence criterion met
 Total energy in the final basis set = -646.97441756
   17    -646.9744175576      9.03E-10 Convergence criterion met
 Total energy in the final basis set = -646.97441756
   17    -646.9744174714      1.18E-09 Convergence criterion met
 Total energy in the final basis set = -646.97441747
   16    -646.9744174814      5.06E-09 Convergence criterion met
 Total energy in the final basis set = -646.97441748
   16    -646.9744171549      7.79E-09 Convergence criterion met
 Total energy in the final basis set = -646.97441715
   15    -646.9744171616      5.95E-09 Convergence criterion met
 Total energy in the final basis set = -646.97441716
   16    -646.9744170287      3.35E-09 Convergence criterion met
 Total energy in the final basis set = -646.97441703
   15    -646.9744169922      8.93E-09 Convergence criterion met
 Total energy in the final basis set = -646.97441699

                    Orbital Energies (a.u.)
 --------------------------------------------------------------

 Alpha MOs
 -- Occupied --
-19.214 -19.204 -19.183 -19.162 -19.151 -19.131 -10.388 -10.355
-10.289 -10.261 -10.248  -1.209  -1.162  -1.151  -1.116  -1.067
 -0.917  -0.867  -0.850  -0.719  -0.707  -0.623  -0.597  -0.578
 -0.572  -0.564  -0.559  -0.542  -0.519  -0.511  -0.503  -0.483
 -0.481  -0.466  -0.452  -0.413  -0.406  -0.395  -0.373  -0.365
 -0.356  -0.340  -0.297  -0.265

          Ground-State Mulliken Net Atomic Charges

     Atom                 Charge (a.u.)
  ----------------------------------------
      1 C                    -0.826148
      2 H                     0.227686
      3 H                     0.225087
      4 H                     0.260847
      5 C                     0.643823
      6 C                    -0.082964
      7 H                     0.011807
      8 H                     0.166470
      9 C                    -0.171840
     10 H                     0.261091
     11 H                     0.101594
     12 C                     0.321586
     13 O                    -0.865736
     14 O                    -0.458327
     15 H                     0.389678
     16 O                    -0.581320
     17 O                    -0.688019
     18 O                    -0.700847
     19 O                    -0.234466
  ----------------------------------------
  Sum of atomic charges =    -2.000000

                    Cartesian Multipole Moments
 -----------------------------------------------------------------
    Charge (ESU x 10^10)
                -9.6064
    Dipole Moment (Debye)
         X     -17.1889      Y       0.7071      Z      18.0784
       Tot      24.9557
    Quadrupole Moments (Debye-Ang)
        XX    -117.8446     XY      -1.0987     YY     -93.2735
        XZ      22.6055     YZ      12.8610     ZZ    -110.2818

             Standard Nuclear Orientation (Angstroms)
    I     Atom           X                Y                Z
 ----------------------------------------------------------------
    1      C      -3.2014652847    -0.8016756431     0.6257216642
    2      H      -3.1674949593     0.1604165326     1.1446936724
    3      H      -4.0324006388    -0.8107585816    -0.0785651821
    4      H      -3.3405854418    -1.5794970745     1.3807237201
    5      C      -1.8954419061    -1.0200564271    -0.0959692282
    6      C       1.0173866519     1.5828120549    -0.4300012103
    7      H       0.1365246156     1.0036007990    -0.7396540435
    8      H       0.6806818190     2.4017270601     0.2205053064
    9      C       1.9833972047     0.7043363929     0.3730125233
   10      H       1.5248333790     0.5203528251     1.3531576577
   11      H       2.9134509067     1.2558079889     0.5368308066
   12      C       2.3050942795    -0.6577176978    -0.2314107919
   13      O       1.7002733733     1.2315078705    -2.6237539628
   14      O      -0.8608450288    -1.0915319101     0.7089317304
   15      H       0.0674659125    -1.2125396143     0.1887034835
   16      O      -1.8157452858    -1.1132576276    -1.3143653298
   17      O       3.4823399625    -0.9391796638    -0.5219359692
   18      O       1.3307949122    -1.4802178655    -0.3672430914
   19      O       1.5866701861     2.2073151914    -1.5496232123
 ----------------------------------------------------------------

 Frequency:        38.84                  46.42                  57.87
 Force Cnst:      0.0015                 0.0095                 0.0057
 Red. Mass:       1.7335                 7.5027                 2.8727
 IR Intens:        3.105                  3.883                  6.781
 Frequency:        64.69                  95.40                 100.45
 Force Cnst:      0.0058                 0.0462                 0.0333
 Red. Mass:       2.3368                 8.6140                 5.6044
 IR Intens:        1.501                 11.625                 11.164
 Frequency:       118.80                 145.54                 158.54
 Force Cnst:      0.0478                 0.1304                 0.1849
 Red. Mass:       5.7431                10.4454                12.4873
 IR Intens:       11.972                 18.149                 12.954
 Frequency:       203.76                 269.41                 382.09
 Force Cnst:      0.1345                 0.2061                 0.2844
 Red. Mass:       5.4962                 4.8189                 3.3067
 IR Intens:      225.071                137.789                 31.725
 Frequency:       445.93                 450.36                 517.30
 Force Cnst:      0.3240                 0.3157                 0.5265
 Red. Mass:       2.7658                 2.6417                 3.3395
 IR Intens:      104.862                 59.568                  9.176
 Frequency:       615.01                 623.45                 642.86
 Force Cnst:      0.5915                 0.9368                 1.1999
 Red. Mass:       2.6540                 4.0909                 4.9280
 IR Intens:       24.206                 65.761                 26.476
 Frequency:       733.09                 841.85                 913.92
 Force Cnst:      1.1040                 1.5519                 2.4193
 Red. Mass:       3.4866                 3.7165                 4.9161
 IR Intens:       17.310                 21.490                 13.079
 Frequency:       917.44                 938.25                1029.17
 Force Cnst:      2.5993                 1.5559                 0.9649
 Red. Mass:       5.2416                 2.9998                 1.5462
 IR Intens:      140.317                 13.473                 11.242
 Frequency:      1033.38                1068.85                1076.05
 Force Cnst:      1.4743                 1.2815                 1.5036
 Red. Mass:       2.3432                 1.9038                 2.2040
 IR Intens:       27.667                 14.198                 69.934
 Frequency:      1121.84                1216.98                1262.25
 Force Cnst:      3.1530                 1.1760                 1.1954
 Red. Mass:       4.2523                 1.3477                 1.2734
 IR Intens:      108.993                242.547                428.767
 Frequency:      1292.15                1308.67                1349.52
 Force Cnst:      1.3834                 1.7627                 1.7112
 Red. Mass:       1.4063                 1.7469                 1.5948
 IR Intens:      396.441               1556.030                 58.599
 Frequency:      1376.16                1400.42                1424.13
 Force Cnst:      1.6903                 1.5973                 2.3981
 Red. Mass:       1.5149                 1.3823                 2.0068
 IR Intens:      508.264                308.339                108.041
 Frequency:      1450.61                1455.25                1459.60
 Force Cnst:      1.3359                 1.3966                 1.4858
 Red. Mass:       1.0775                 1.1193                 1.1837
 IR Intens:       42.704                 31.649                 66.561
 Frequency:      1463.58                1496.94                1590.15
 Force Cnst:      1.3314                 1.9769                 7.0688
 Red. Mass:       1.0549                 1.4974                 4.7448
 IR Intens:        6.804                124.396               1460.905
 Frequency:      1693.01                1982.36                3020.59
 Force Cnst:     11.2521                 3.1651                 5.6799
 Red. Mass:       6.6630                 1.3670                 1.0566
 IR Intens:      478.344               2869.536                105.517
 Frequency:      3055.18                3070.15                3073.71
 Force Cnst:      5.8673                 6.1159                 5.7729
 Red. Mass:       1.0669                 1.1013                 1.0371
 IR Intens:       19.399                 69.104                  2.916
 Frequency:      3116.56                3145.73                3179.94
 Force Cnst:      6.2963                 6.4183                 6.5824
 Red. Mass:       1.1002                 1.1008                 1.1048
 IR Intens:       53.408                  6.817                 14.016

 STANDARD THERMODYNAMIC QUANTITIES AT   298.15 K  AND     1.00 ATM

   This Molecule has  0 Imaginary Frequencies
   Zero point vibrational energy:       85.108 kcal/mol

   Atom    1 Element C  Has Mass   12.00000
   Atom    2 Element H  Has Mass    1.00783
   Atom    3 Element H  Has Mass    1.00783
   Atom    4 Element H  Has Mass    1.00783
   Atom    5 Element C  Has Mass   12.00000
   Atom    6 Element C  Has Mass   12.00000
   Atom    7 Element H  Has Mass    1.00783
   Atom    8 Element H  Has Mass    1.00783
   Atom    9 Element C  Has Mass   12.00000
   Atom   10 Element H  Has Mass    1.00783
   Atom   11 Element H  Has Mass    1.00783
   Atom   12 Element C  Has Mass   12.00000
   Atom   13 Element O  Has Mass   15.99491
   Atom   14 Element O  Has Mass   15.99491
   Atom   15 Element H  Has Mass    1.00783
   Atom   16 Element O  Has Mass   15.99491
   Atom   17 Element O  Has Mass   15.99491
   Atom   18 Element O  Has Mass   15.99491
   Atom   19 Element O  Has Mass   15.99491
   Molecular Mass:   164.032100 amu
   Principal axes and moments of inertia in amu*Bohr^2:
                             1           2           3
    Eigenvalues --     1241.40530  3036.65887  3542.67854
          X               0.91886    -0.39360     0.02789
          Y               0.32736     0.79987     0.50303
          Z              -0.22031    -0.45308     0.86382
   Rotational Symmetry Number is   1
   The Molecule is an Asymmetric Top
   Translational Enthalpy:        0.889 kcal/mol
   Rotational Enthalpy:           0.889 kcal/mol
   Vibrational Enthalpy:         91.307 kcal/mol
   gas constant (RT):             0.592 kcal/mol
   Translational Entropy:        41.193  cal/mol.K
   Rotational Entropy:           30.969  cal/mol.K
   Vibrational Entropy:          44.166  cal/mol.K

   Total Enthalpy:               93.677 kcal/mol
   Total Entropy:               116.328  cal/mol.K

 Total job time:  50056.06s(wall), 696284.77s(cpu)
        *  Thank you very much for using Q-Chem.  Have a nice day.  *
