 Q-Chem 5.0, Q-Chem, Inc., Pleasanton, CA (2017)
 Q-Chem 5.0.2 for Intel X86 EM64T Linux

User input:
--------------------------------------------------------------
$molecule
-2 1
C       -2.7859741368    0.7696569808   -1.3024025191
H       -2.3862205117    1.7848778425   -1.3859793445
H       -3.8566394477    0.8180680462   -1.1092186271
H       -2.5876507989    0.2518603495   -2.2425477714
C       -2.0920828049    0.0771747161   -0.1639020006
C       -0.0188016476   -0.8628497413    0.5481107427
H        0.7520714279   -1.4049346934    0.0010636319
H       -0.6312084362   -1.5641826593    1.1176791287
C        0.5911649728    0.1961513276    1.4461865978
H        1.2505544620   -0.3147883200    2.1581974373
C        1.4334159513    1.2219591073    0.6702950346
O       -2.5908307548   -0.1467321585    0.9189108023
O       -0.8368787440   -0.2540796489   -0.4824579414
O        2.3061161476    0.7674735331   -0.1205239235
O        1.2071501536    2.4368085068    0.8828579315
H       -0.1860744559    0.7110832716    2.0151022177
O        3.4524678038   -2.4254842056    0.7276387021
O        3.2427632421   -1.8383931450   -0.6061320958
H        2.8873007912   -0.9543368907   -0.3926621835
$end

$rem
jobtype               freq
method                wb97x-v
basis                 def2-tzvpd
symmetry              off
sym_ignore            true
incdft                false
incfock               0
!scf_algorithm        diis_gdm
scf_convergence       8
thresh                14
!purecart             112
max_scf_cycles        1000
geom_opt_max_cycles   500
geom_opt_dmax         100
geom_opt_tol_gradient 10
solvent_method        pcm
ideriv                1
rpath_tol_displacement 1000
rpath_max_cycles      100
rpath_direction       1
!scf_guess            read
scf_guess             read
$end

$pcm
theory              cosmo
method              iswig
Radii               bondi
vdwScale            1.20
hpoints             110
heavypoints         110
$end

$solvent
dielectric 78.400000
$end

--------------------------------------------------------------

   17    -646.9608915164      6.77E-09 Convergence criterion met
 Total energy in the final basis set = -646.96089152
   16    -646.9608905189      5.85E-09 Convergence criterion met
 Total energy in the final basis set = -646.96089052
   14    -646.9608903767      7.93E-09 Convergence criterion met
 Total energy in the final basis set = -646.96089038
   15    -646.9608905795      4.86E-09 Convergence criterion met
 Total energy in the final basis set = -646.96089058
   14    -646.9608905774      8.03E-09 Convergence criterion met
 Total energy in the final basis set = -646.96089058
   15    -646.9608905843      4.21E-09 Convergence criterion met
 Total energy in the final basis set = -646.96089058
   14    -646.9608905286      7.89E-09 Convergence criterion met
 Total energy in the final basis set = -646.96089053
   16    -646.9608913571      4.63E-09 Convergence criterion met
 Total energy in the final basis set = -646.96089104
   15    -646.9608910128      3.89E-09 Convergence criterion met
 Total energy in the final basis set = -646.96089101
   16    -646.9608913715      6.70E-09 Convergence criterion met
 Total energy in the final basis set = -646.96089137
   16    -646.9608913955      9.15E-09 Convergence criterion met
 Total energy in the final basis set = -646.96089140
   17    -646.9608908500      1.19E-09 Convergence criterion met
 Total energy in the final basis set = -646.96089085
   15    -646.9608908411      3.82E-09 Convergence criterion met
 Total energy in the final basis set = -646.96089084
   16    -646.9608913339      5.43E-09 Convergence criterion met
 Total energy in the final basis set = -646.96089133
   17    -646.9608913810      1.09E-09 Convergence criterion met
 Total energy in the final basis set = -646.96089138

                    Orbital Energies (a.u.)
 --------------------------------------------------------------

 Alpha MOs
 -- Occupied --
-19.255 -19.201 -19.183 -19.148 -19.147 -19.129 -10.403 -10.349
-10.316 -10.268 -10.256  -1.239  -1.153  -1.146  -1.118  -1.058
 -0.914  -0.867  -0.866  -0.778  -0.680  -0.623  -0.608  -0.606
 -0.588  -0.561  -0.545  -0.541  -0.517  -0.516  -0.501  -0.493
 -0.473  -0.453  -0.451  -0.444  -0.424  -0.408  -0.388  -0.355
 -0.345  -0.338  -0.292  -0.265

          Ground-State Mulliken Net Atomic Charges

     Atom                 Charge (a.u.)
  ----------------------------------------
      1 C                    -0.794657
      2 H                     0.226899
      3 H                     0.239965
      4 H                     0.256927
      5 C                     0.602378
      6 C                    -0.273442
      7 H                     0.196941
      8 H                     0.241026
      9 C                    -0.012350
     10 H                     0.219115
     11 C                     0.200586
     12 O                    -0.539543
     13 O                    -0.294908
     14 O                    -0.734353
     15 O                    -0.709630
     16 H                     0.149525
     17 O                    -0.857244
     18 O                    -0.410381
     19 H                     0.293144
  ----------------------------------------
  Sum of atomic charges =    -2.000000

                    Cartesian Multipole Moments
 -----------------------------------------------------------------
    Charge (ESU x 10^10)
                -9.6064
    Dipole Moment (Debye)
         X     -24.7337      Y       4.9870      Z      -4.6822
       Tot      25.6622
    Quadrupole Moments (Debye-Ang)
        XX    -156.4381     XY      29.8574     YY    -120.2772
        XZ       2.3592     YZ      -1.5074     ZZ     -75.1615

             Standard Nuclear Orientation (Angstroms)
    I     Atom           X                Y                Z
 ----------------------------------------------------------------
    1      C      -2.7859741368     0.7696569808    -1.3024025191
    2      H      -2.3862205117     1.7848778425    -1.3859793445
    3      H      -3.8566394477     0.8180680462    -1.1092186271
    4      H      -2.5876507989     0.2518603495    -2.2425477714
    5      C      -2.0920828049     0.0771747161    -0.1639020006
    6      C      -0.0188016476    -0.8628497413     0.5481107427
    7      H       0.7520714279    -1.4049346934     0.0010636319
    8      H      -0.6312084362    -1.5641826593     1.1176791287
    9      C       0.5911649728     0.1961513276     1.4461865978
   10      H       1.2505544620    -0.3147883200     2.1581974373
   11      C       1.4334159513     1.2219591073     0.6702950346
   12      O      -2.5908307548    -0.1467321585     0.9189108023
   13      O      -0.8368787440    -0.2540796489    -0.4824579414
   14      O       2.3061161476     0.7674735331    -0.1205239235
   15      O       1.2071501536     2.4368085068     0.8828579315
   16      H      -0.1860744559     0.7110832716     2.0151022177
   17      O       3.4524678038    -2.4254842056     0.7276387021
   18      O       3.2427632421    -1.8383931450    -0.6061320958
   19      H       2.8873007912    -0.9543368907    -0.3926621835
 ----------------------------------------------------------------

 Frequency:        18.87                  33.55                  44.00
 Force Cnst:      0.0011                 0.0069                 0.0064
 Red. Mass:       5.1741                10.3894                 5.5878
 IR Intens:       11.620                 10.030                  7.728
 Frequency:        56.97                  62.28                  80.20
 Force Cnst:      0.0026                 0.0159                 0.0116
 Red. Mass:       1.3791                 6.9705                 3.0716
 IR Intens:        4.294                 37.222                  9.414
 Frequency:       104.19                 127.81                 130.47
 Force Cnst:      0.0811                 0.0350                 0.1213
 Red. Mass:      12.6761                 3.6378                12.0897
 IR Intens:        7.998                  5.914                  1.130
 Frequency:       182.60                 203.48                 329.80
 Force Cnst:      0.1350                 0.1909                 0.1554
 Red. Mass:       6.8714                 7.8273                 2.4249
 IR Intens:       11.415                 31.088                 21.257
 Frequency:       386.87                 440.73                 506.93
 Force Cnst:      0.2666                 0.2977                 0.6659
 Red. Mass:       3.0230                 2.6010                 4.3983
 IR Intens:       13.501                 16.195                 22.229
 Frequency:       609.26                 617.87                 656.74
 Force Cnst:      0.7934                 0.6992                 1.0458
 Red. Mass:       3.6278                 3.1087                 4.1153
 IR Intens:        4.007                 29.444                 17.908
 Frequency:       676.21                 714.44                 845.37
 Force Cnst:      0.3140                 0.5930                 1.5665
 Red. Mass:       1.1657                 1.9720                 3.7205
 IR Intens:      123.945                 51.195                 40.180
 Frequency:       882.27                 923.30                 941.59
 Force Cnst:      2.0922                 7.7058                 1.5025
 Red. Mass:       4.5620                15.3420                 2.8764
 IR Intens:       22.357                 11.055                  4.615
 Frequency:      1007.99                1024.76                1067.36
 Force Cnst:      1.3583                 1.1576                 1.2766
 Red. Mass:       2.2690                 1.8710                 1.9019
 IR Intens:       12.498                 13.551                 21.989
 Frequency:      1069.05                1102.91                1224.53
 Force Cnst:      1.4916                 1.7892                 1.1974
 Red. Mass:       2.2151                 2.4965                 1.3554
 IR Intens:       84.649                 76.496                 30.139
 Frequency:      1269.61                1301.89                1347.92
 Force Cnst:      1.8461                 1.7565                 1.6573
 Red. Mass:       1.9439                 1.7590                 1.5482
 IR Intens:      270.265                379.574                 35.336
 Frequency:      1388.89                1397.74                1421.44
 Force Cnst:      1.2479                 1.4978                 1.9467
 Red. Mass:       1.0980                 1.3012                 1.6353
 IR Intens:       50.853                 61.943                 72.025
 Frequency:      1444.45                1452.11                1455.66
 Force Cnst:      2.5395                 1.3184                 1.8134
 Red. Mass:       2.0658                 1.0612                 1.4525
 IR Intens:      151.224                 46.430                125.189
 Frequency:      1462.96                1485.98                1598.92
 Force Cnst:      1.3395                 1.5087                14.7779
 Red. Mass:       1.0622                 1.1596                 9.8109
 IR Intens:       26.901                 46.615               1369.460
 Frequency:      1765.96                3070.77                3077.07
 Force Cnst:     19.6421                 5.9107                 5.7902
 Red. Mass:      10.6900                 1.0639                 1.0379
 IR Intens:      577.644                 12.880                  0.390
 Frequency:      3110.23                3132.63                3152.30
 Force Cnst:      6.0461                 6.3629                 6.4352
 Red. Mass:       1.0608                 1.1005                 1.0991
 IR Intens:       29.221                 29.262                  3.921
 Frequency:      3175.40                3188.30                3559.64
 Force Cnst:      6.5821                 6.6216                 7.9973
 Red. Mass:       1.1079                 1.1056                 1.0712
 IR Intens:        5.483                  8.337                936.565

 STANDARD THERMODYNAMIC QUANTITIES AT   298.15 K  AND     1.00 ATM

   This Molecule has  0 Imaginary Frequencies
   Zero point vibrational energy:       86.249 kcal/mol

   Atom    1 Element C  Has Mass   12.00000
   Atom    2 Element H  Has Mass    1.00783
   Atom    3 Element H  Has Mass    1.00783
   Atom    4 Element H  Has Mass    1.00783
   Atom    5 Element C  Has Mass   12.00000
   Atom    6 Element C  Has Mass   12.00000
   Atom    7 Element H  Has Mass    1.00783
   Atom    8 Element H  Has Mass    1.00783
   Atom    9 Element C  Has Mass   12.00000
   Atom   10 Element H  Has Mass    1.00783
   Atom   11 Element C  Has Mass   12.00000
   Atom   12 Element O  Has Mass   15.99491
   Atom   13 Element O  Has Mass   15.99491
   Atom   14 Element O  Has Mass   15.99491
   Atom   15 Element O  Has Mass   15.99491
   Atom   16 Element H  Has Mass    1.00783
   Atom   17 Element O  Has Mass   15.99491
   Atom   18 Element O  Has Mass   15.99491
   Atom   19 Element H  Has Mass    1.00783
   Molecular Mass:   164.032100 amu
   Principal axes and moments of inertia in amu*Bohr^2:
                             1           2           3
    Eigenvalues --     1271.47747  3289.06133  3848.25464
          X               0.95540     0.26750    -0.12514
          Y              -0.28643     0.94254    -0.17198
          Z               0.07195     0.20015     0.97712
   Rotational Symmetry Number is   1
   The Molecule is an Asymmetric Top
   Translational Enthalpy:        0.889 kcal/mol
   Rotational Enthalpy:           0.889 kcal/mol
   Vibrational Enthalpy:         92.895 kcal/mol
   gas constant (RT):             0.592 kcal/mol
   Translational Entropy:        41.193  cal/mol.K
   Rotational Entropy:           31.154  cal/mol.K
   Vibrational Entropy:          50.731  cal/mol.K

   Total Enthalpy:               95.265 kcal/mol
   Total Entropy:               123.078  cal/mol.K

 Total job time:  48239.41s(wall), 672778.33s(cpu)
        *  Thank you very much for using Q-Chem.  Have a nice day.  *
