 Q-Chem 5.0, Q-Chem, Inc., Pleasanton, CA (2017)
 Q-Chem 5.0.2 for Intel X86 EM64T Linux

User input:
--------------------------------------------------------------
$molecule
-2 1
O        0.6088437149   -0.1947404138   -0.1019133657
C       -0.7065010765    0.2578526194   -0.3514919377
H       -0.7106455064    1.3386087770   -0.5457893286
H       -1.3469148186    0.0723839657    0.5220472365
H       -1.2864784848   -1.5609027409   -1.3371234145
C       -2.6713515936    0.0076368093   -1.8911176952
O       -3.6209952097   -0.4800156753   -1.2216274665
O       -2.7817981895    0.8888064013   -2.7841205472
O        1.0785315428    1.6079554700    1.2979954979
H        2.6406793999   -1.3239105769    1.0075431788
C        2.6306889361   -0.2336709004    1.0987702068
H        3.1467754554    0.0509943506    2.0193823343
H        3.1615432188    0.1984124678    0.2461139159
C        1.2008914958    0.3151717214    1.1417063734
H       -0.5970919522   -0.3233500826   -2.4169467908
O        0.5242276179   -0.4154124087    2.2202296954
H       -0.0190202583    0.2627750589    2.6395643498
C       -1.2571893956   -0.4895415349   -1.5604203885
$end

$rem
jobtype               freq
method                wb97x-v
basis                 def2-tzvpd
symmetry              off
sym_ignore            true
incdft                false
incfock               0
!scf_algorithm        diis_gdm
scf_convergence       8
thresh                14
!purecart             112
max_scf_cycles        1000
geom_opt_max_cycles   500
geom_opt_dmax         100
geom_opt_tol_gradient 10
solvent_method        pcm
ideriv                1
rpath_tol_displacement 1000
rpath_max_cycles      100
rpath_direction       1
!scf_guess            read
scf_guess             read
$end

$pcm
theory              cosmo
method              iswig
Radii               bondi
vdwScale            1.20
hpoints             110
heavypoints         110
$end

$solvent
dielectric 78.400000
$end

--------------------------------------------------------------

   17    -571.8193598221      2.89E-09 Convergence criterion met
 Total energy in the final basis set = -571.81935982
   14    -571.8193591075      5.54E-09 Convergence criterion met
 Total energy in the final basis set = -571.81935911
   13    -571.8193591526      9.33E-09 Convergence criterion met
 Total energy in the final basis set = -571.81935915
   14    -571.8193594700      5.48E-09 Convergence criterion met
 Total energy in the final basis set = -571.81935947
   14    -571.8193595057      5.30E-09 Convergence criterion met
 Total energy in the final basis set = -571.81935951
   14    -571.8193593313      5.24E-09 Convergence criterion met
 Total energy in the final basis set = -571.81935933
   14    -571.8193593911      5.31E-09 Convergence criterion met
 Total energy in the final basis set = -571.81935939
   14    -571.8193589787      4.98E-09 Convergence criterion met
 Total energy in the final basis set = -571.81935959
   16    -571.8193595923      1.16E-09 Convergence criterion met
 Total energy in the final basis set = -571.81935959
   14    -571.8193589122      5.26E-09 Convergence criterion met
 Total energy in the final basis set = -571.81935891
   13    -571.8193589308      8.78E-09 Convergence criterion met
 Total energy in the final basis set = -571.81935893
   13    -571.8193588454      9.54E-09 Convergence criterion met
 Total energy in the final basis set = -571.81935885
   13    -571.8193587798      8.79E-09 Convergence criterion met
 Total energy in the final basis set = -571.81935878
   13    -571.8193588680      9.42E-09 Convergence criterion met
 Total energy in the final basis set = -571.81935887
   13    -571.8193588900      9.19E-09 Convergence criterion met
 Total energy in the final basis set = -571.81935889

                    Orbital Energies (a.u.)
 --------------------------------------------------------------

 Alpha MOs
 -- Occupied --
-19.181 -19.181 -19.140 -19.140 -19.104 -10.367 -10.341 -10.290
-10.244 -10.232  -1.169  -1.143  -1.094  -1.049  -1.030  -0.877
 -0.831  -0.732  -0.667  -0.617  -0.584  -0.572  -0.545  -0.544
 -0.524  -0.513  -0.505  -0.483  -0.475  -0.463  -0.450  -0.439
 -0.409  -0.384  -0.355  -0.344  -0.337  -0.330  -0.315  -0.309

          Ground-State Mulliken Net Atomic Charges

     Atom                 Charge (a.u.)
  ----------------------------------------
      1 O                    -0.281285
      2 C                    -0.504423
      3 H                     0.175402
      4 H                     0.176789
      5 H                     0.184617
      6 C                     0.184664
      7 O                    -0.707180
      8 O                    -0.701198
      9 O                    -0.875414
     10 H                     0.214570
     11 C                    -1.044384
     12 H                     0.235286
     13 H                     0.222129
     14 C                     0.632675
     15 H                     0.166198
     16 O                    -0.557685
     17 H                     0.351093
     18 C                     0.128145
  ----------------------------------------
  Sum of atomic charges =    -2.000000

                    Cartesian Multipole Moments
 -----------------------------------------------------------------
    Charge (ESU x 10^10)
                -9.6064
    Dipole Moment (Debye)
         X      11.3543      Y      -5.3017      Z       4.5640
       Tot      13.3363
    Quadrupole Moments (Debye-Ang)
        XX    -129.8201     XY      -2.9557     YY     -81.6161
        XZ     -39.2063     YZ       3.5692     ZZ     -98.9230

             Standard Nuclear Orientation (Angstroms)
    I     Atom           X                Y                Z
 ----------------------------------------------------------------
    1      O       0.6088437149    -0.1947404138    -0.1019133657
    2      C      -0.7065010765     0.2578526194    -0.3514919377
    3      H      -0.7106455064     1.3386087770    -0.5457893286
    4      H      -1.3469148186     0.0723839657     0.5220472365
    5      H      -1.2864784848    -1.5609027409    -1.3371234145
    6      C      -2.6713515936     0.0076368093    -1.8911176952
    7      O      -3.6209952097    -0.4800156753    -1.2216274665
    8      O      -2.7817981895     0.8888064013    -2.7841205472
    9      O       1.0785315428     1.6079554700     1.2979954979
   10      H       2.6406793999    -1.3239105769     1.0075431788
   11      C       2.6306889361    -0.2336709004     1.0987702068
   12      H       3.1467754554     0.0509943506     2.0193823343
   13      H       3.1615432188     0.1984124678     0.2461139159
   14      C       1.2008914958     0.3151717214     1.1417063734
   15      H      -0.5970919522    -0.3233500826    -2.4169467908
   16      O       0.5242276179    -0.4154124087     2.2202296954
   17      H      -0.0190202583     0.2627750589     2.6395643498
   18      C      -1.2571893956    -0.4895415349    -1.5604203885
 ----------------------------------------------------------------

 Frequency:        42.53                  55.50                  61.76
 Force Cnst:      0.0126                 0.0086                 0.0067
 Red. Mass:      11.7855                 4.7241                 2.9658
 IR Intens:        0.736                  2.985                  1.495
 Frequency:       102.60                 155.13                 198.52
 Force Cnst:      0.0393                 0.0452                 0.0299
 Red. Mass:       6.3306                 3.1878                 1.2857
 IR Intens:        5.687                 31.672                 82.201
 Frequency:       232.11                 249.08                 303.20
 Force Cnst:      0.1049                 0.0387                 0.3083
 Red. Mass:       3.3038                 1.0582                 5.6920
 IR Intens:       53.166                  6.571                 19.826
 Frequency:       376.96                 404.55                 460.59
 Force Cnst:      0.2522                 0.3850                 0.3813
 Red. Mass:       3.0121                 3.9922                 3.0508
 IR Intens:       10.185                 10.746                  4.652
 Frequency:       520.16                 555.88                 618.64
 Force Cnst:      0.7137                 0.9439                 1.1993
 Red. Mass:       4.4772                 5.1846                 5.3186
 IR Intens:       10.912                  3.766                 35.308
 Frequency:       672.13                 767.15                 786.69
 Force Cnst:      1.2523                 1.9051                 1.6384
 Red. Mass:       4.7049                 5.4942                 4.4933
 IR Intens:       26.431                100.031                339.064
 Frequency:       805.32                 814.26                 955.50
 Force Cnst:      0.9059                 0.6751                 2.3992
 Red. Mass:       2.3708                 1.7283                 4.4602
 IR Intens:      163.524                116.926                 13.888
 Frequency:       963.89                1058.63                1076.43
 Force Cnst:      1.0719                 1.4336                 1.0344
 Red. Mass:       1.9581                 2.1712                 1.5152
 IR Intens:      133.168                268.591                 11.774
 Frequency:      1093.30                1119.98                1123.15
 Force Cnst:      2.2448                 1.4879                 2.9433
 Red. Mass:       3.1875                 2.0133                 3.9601
 IR Intens:      122.228                179.960                157.087
 Frequency:      1163.05                1220.63                1283.86
 Force Cnst:      1.8965                 1.1079                 1.4255
 Red. Mass:       2.3796                 1.2621                 1.4678
 IR Intens:      162.588                 30.547                  7.567
 Frequency:      1297.38                1361.05                1406.76
 Force Cnst:      1.1047                 1.6852                 1.7209
 Red. Mass:       1.1139                 1.5440                 1.4759
 IR Intens:        3.030                177.020                 35.822
 Frequency:      1422.46                1431.39                1467.40
 Force Cnst:      3.2629                 5.1308                 1.3491
 Red. Mass:       2.7370                 4.2503                 1.0634
 IR Intens:      201.930                444.853                  5.874
 Frequency:      1470.43                1480.95                1517.12
 Force Cnst:      1.3386                 1.6125                 1.4805
 Red. Mass:       1.0508                 1.2479                 1.0918
 IR Intens:        4.274                 66.826                  4.171
 Frequency:      1584.78                3019.79                3053.05
 Force Cnst:     14.7862                 5.6669                 5.6860
 Red. Mass:       9.9923                 1.0547                 1.0354
 IR Intens:     1307.939                 84.883                 28.601
 Frequency:      3054.11                3065.88                3118.92
 Force Cnst:      6.0712                 5.8651                 6.3438
 Red. Mass:       1.1047                 1.0590                 1.1069
 IR Intens:       57.395                 52.465                 77.806
 Frequency:      3129.94                3137.39                3827.23
 Force Cnst:      6.3672                 6.3998                 9.1937
 Red. Mass:       1.1031                 1.1035                 1.0653
 IR Intens:       62.635                 53.881                 63.678

 STANDARD THERMODYNAMIC QUANTITIES AT   298.15 K  AND     1.00 ATM

   This Molecule has  0 Imaginary Frequencies
   Zero point vibrational energy:       84.469 kcal/mol

   Atom    1 Element O  Has Mass   15.99491
   Atom    2 Element C  Has Mass   12.00000
   Atom    3 Element H  Has Mass    1.00783
   Atom    4 Element H  Has Mass    1.00783
   Atom    5 Element H  Has Mass    1.00783
   Atom    6 Element C  Has Mass   12.00000
   Atom    7 Element O  Has Mass   15.99491
   Atom    8 Element O  Has Mass   15.99491
   Atom    9 Element O  Has Mass   15.99491
   Atom   10 Element H  Has Mass    1.00783
   Atom   11 Element C  Has Mass   12.00000
   Atom   12 Element H  Has Mass    1.00783
   Atom   13 Element H  Has Mass    1.00783
   Atom   14 Element C  Has Mass   12.00000
   Atom   15 Element H  Has Mass    1.00783
   Atom   16 Element O  Has Mass   15.99491
   Atom   17 Element H  Has Mass    1.00783
   Atom   18 Element C  Has Mass   12.00000
   Molecular Mass:   148.037190 amu
   Principal axes and moments of inertia in amu*Bohr^2:
                             1           2           3
    Eigenvalues --      556.59221  3295.75467  3388.65511
          X               0.79209    -0.54166    -0.28141
          Y               0.02305    -0.43416     0.90054
          Z               0.60996     0.71980     0.33141
   Rotational Symmetry Number is   1
   The Molecule is an Asymmetric Top
   Translational Enthalpy:        0.889 kcal/mol
   Rotational Enthalpy:           0.889 kcal/mol
   Vibrational Enthalpy:         89.513 kcal/mol
   gas constant (RT):             0.592 kcal/mol
   Translational Entropy:        40.887  cal/mol.K
   Rotational Entropy:           30.209  cal/mol.K
   Vibrational Entropy:          33.636  cal/mol.K

   Total Enthalpy:               91.883 kcal/mol
   Total Entropy:               104.732  cal/mol.K

 Total job time:  33858.64s(wall), 471630.12s(cpu)
        *  Thank you very much for using Q-Chem.  Have a nice day.  *
