 Q-Chem 5.0, Q-Chem, Inc., Pleasanton, CA (2017)
 Q-Chem 5.0.2 for Intel X86 EM64T Linux

User input:
--------------------------------------------------------------
$molecule
-2 1
C       -0.0885450879    0.6935673279   -1.1126865642
C        0.4256027600    1.4774144749   -2.3317731346
O       -0.1971911103    2.5407393591   -2.5991654653
O        1.4026774663    1.0207807896   -2.9774568272
C        0.7583522893   -0.5112326514   -0.7203923678
H       -1.1147399700    0.3881319441   -1.3460171976
H       -0.1559233856    1.3835401550   -0.2656469496
C        0.2757269965   -1.2774766425    0.4885657143
H        1.7963468444   -0.2218273315   -0.5400814637
H        0.7696643547   -1.2374432966   -1.5454879457
C       -1.2065438787   -1.4718886029    0.6644037719
H       -1.6762432202   -0.5073525882    0.8719837343
H       -1.4009175523   -2.1622849287    1.4861444060
H       -1.6414040605   -1.8580914175   -0.2638216023
O        1.0741607281   -1.8085090102    1.2497394501
O        0.3391289846    1.1201486873    2.2065442160
O        0.8244155591    0.2729440262    3.3038406248
H        1.0031231588   -0.5579228185    2.8401465903
$end

$rem
jobtype               freq
method                wb97x-v
basis                 def2-tzvpd
symmetry              off
sym_ignore            true
incdft                false
incfock               0
!scf_algorithm        diis_gdm
scf_convergence       8
thresh                14
!purecart             112
max_scf_cycles        1000
geom_opt_max_cycles   500
geom_opt_dmax         100
geom_opt_tol_gradient 10
solvent_method        pcm
ideriv                1
rpath_tol_displacement 1000
rpath_max_cycles      100
rpath_direction       1
!scf_guess            read
scf_guess             read
$end

$pcm
theory              cosmo
method              iswig
Radii               bondi
vdwScale            1.20
hpoints             110
heavypoints         110
$end

$solvent
dielectric 78.400000
$end

--------------------------------------------------------------

   17    -571.7100076209      9.18E-09 Convergence criterion met
 Total energy in the final basis set = -571.71000762
   15    -571.7100066360      9.22E-09 Convergence criterion met
 Total energy in the final basis set = -571.71000664
   15    -571.7100066625      7.30E-09 Convergence criterion met
 Total energy in the final basis set = -571.71000666
   15    -571.7100067083      7.34E-09 Convergence criterion met
 Total energy in the final basis set = -571.71000671
   15    -571.7100066657      6.82E-09 Convergence criterion met
 Total energy in the final basis set = -571.71000667
   15    -571.7100067295      7.58E-09 Convergence criterion met
 Total energy in the final basis set = -571.71000673
   15    -571.7100066759      6.92E-09 Convergence criterion met
 Total energy in the final basis set = -571.71000668
   15    -571.7100066164      8.84E-09 Convergence criterion met
 Total energy in the final basis set = -571.71000706
   15    -571.7100070644      7.37E-09 Convergence criterion met
 Total energy in the final basis set = -571.71000706
   16    -571.7100075203      8.23E-09 Convergence criterion met
 Total energy in the final basis set = -571.71000752
   17    -571.7100076261      1.50E-09 Convergence criterion met
 Total energy in the final basis set = -571.71000763
   17    -571.7100069322      1.39E-09 Convergence criterion met
 Total energy in the final basis set = -571.71000693
   15    -571.7100069577      7.24E-09 Convergence criterion met
 Total energy in the final basis set = -571.71000696
   16    -571.7100073472      7.07E-09 Convergence criterion met
 Total energy in the final basis set = -571.71000735
   17    -571.7100073223      7.83E-10 Convergence criterion met
 Total energy in the final basis set = -571.71000732

                    Orbital Energies (a.u.)
 --------------------------------------------------------------

 Alpha MOs
 -- Occupied --
-19.197 -19.195 -19.141 -19.138 -19.131 -10.358 -10.341 -10.259
-10.256 -10.250  -1.168  -1.143  -1.128  -1.049  -0.915  -0.872
 -0.852  -0.776  -0.639  -0.610  -0.583  -0.571  -0.560  -0.539
 -0.532  -0.518  -0.511  -0.489  -0.480  -0.465  -0.448  -0.441
 -0.432  -0.426  -0.361  -0.347  -0.335  -0.328  -0.295  -0.268

          Ground-State Mulliken Net Atomic Charges

     Atom                 Charge (a.u.)
  ----------------------------------------
      1 C                    -0.081536
      2 C                    -0.041629
      3 O                    -0.710951
      4 O                    -0.695074
      5 C                     0.117053
      6 H                     0.231561
      7 H                     0.089923
      8 C                     0.294425
      9 H                     0.200928
     10 H                     0.290529
     11 C                    -0.924892
     12 H                     0.243531
     13 H                     0.222039
     14 H                     0.328760
     15 O                    -0.640405
     16 O                    -0.768205
     17 O                    -0.454083
     18 H                     0.298026
  ----------------------------------------
  Sum of atomic charges =    -2.000000

                    Cartesian Multipole Moments
 -----------------------------------------------------------------
    Charge (ESU x 10^10)
                -9.6064
    Dipole Moment (Debye)
         X      -7.9486      Y     -13.8043      Z      -0.3468
       Tot      15.9330
    Quadrupole Moments (Debye-Ang)
        XX     -74.8055     XY       0.9365     YY     -97.5819
        XZ       2.2713     YZ      18.5356     ZZ    -147.3568

             Standard Nuclear Orientation (Angstroms)
    I     Atom           X                Y                Z
 ----------------------------------------------------------------
    1      C      -0.0885450879     0.6935673279    -1.1126865642
    2      C       0.4256027600     1.4774144749    -2.3317731346
    3      O      -0.1971911103     2.5407393591    -2.5991654653
    4      O       1.4026774663     1.0207807896    -2.9774568272
    5      C       0.7583522893    -0.5112326514    -0.7203923678
    6      H      -1.1147399700     0.3881319441    -1.3460171976
    7      H      -0.1559233856     1.3835401550    -0.2656469496
    8      C       0.2757269965    -1.2774766425     0.4885657143
    9      H       1.7963468444    -0.2218273315    -0.5400814637
   10      H       0.7696643547    -1.2374432966    -1.5454879457
   11      C      -1.2065438787    -1.4718886029     0.6644037719
   12      H      -1.6762432202    -0.5073525882     0.8719837343
   13      H      -1.4009175523    -2.1622849287     1.4861444060
   14      H      -1.6414040605    -1.8580914175    -0.2638216023
   15      O       1.0741607281    -1.8085090102     1.2497394501
   16      O       0.3391289846     1.1201486873     2.2065442160
   17      O       0.8244155591     0.2729440262     3.3038406248
   18      H       1.0031231588    -0.5579228185     2.8401465903
 ----------------------------------------------------------------

 Frequency:        29.74                  59.26                  59.75
 Force Cnst:      0.0072                 0.0168                 0.0075
 Red. Mass:      13.7722                 8.1377                 3.5833
 IR Intens:        3.374                 16.427                 34.151
 Frequency:        86.26                  98.98                 119.44
 Force Cnst:      0.0109                 0.0226                 0.0220
 Red. Mass:       2.4831                 3.9150                 2.6170
 IR Intens:        2.772                 41.118                  0.822
 Frequency:       138.49                 154.16                 155.38
 Force Cnst:      0.0346                 0.0456                 0.0458
 Red. Mass:       3.0574                 3.2548                 3.2193
 IR Intens:       16.332                 14.628                  3.824
 Frequency:       196.37                 254.93                 348.99
 Force Cnst:      0.1274                 0.1834                 0.0766
 Red. Mass:       5.6072                 4.7902                 1.0677
 IR Intens:       25.158                 12.230                136.409
 Frequency:       400.80                 447.81                 535.51
 Force Cnst:      0.3990                 0.3965                 0.4165
 Red. Mass:       4.2156                 3.3558                 2.4653
 IR Intens:        1.003                 18.341                 14.755
 Frequency:       571.85                 598.39                 691.22
 Force Cnst:      0.6939                 0.4142                 1.7325
 Red. Mass:       3.6016                 1.9635                 6.1545
 IR Intens:       37.143                  9.620                 39.450
 Frequency:       775.34                 821.60                 923.33
 Force Cnst:      0.5609                 1.2157                 7.4318
 Red. Mass:       1.5835                 3.0567                14.7956
 IR Intens:       20.791                  1.515                 15.884
 Frequency:       925.95                 935.66                1018.42
 Force Cnst:      1.8122                 0.9238                 1.0118
 Red. Mass:       3.5874                 1.7909                 1.6557
 IR Intens:       21.560                 26.128                 11.413
 Frequency:      1080.28                1107.56                1179.72
 Force Cnst:      1.4861                 2.0072                 1.1309
 Red. Mass:       2.1614                 2.7772                 1.3791
 IR Intens:        7.294                  4.681                 11.422
 Frequency:      1256.16                1270.58                1301.74
 Force Cnst:      1.2761                 2.0680                 1.1011
 Red. Mass:       1.3726                 2.1742                 1.1029
 IR Intens:       31.633                 93.023                 73.920
 Frequency:      1306.78                1373.07                1388.05
 Force Cnst:      1.1568                 1.9215                 1.9737
 Red. Mass:       1.1497                 1.7299                 1.7387
 IR Intens:       38.791                 58.424                155.177
 Frequency:      1435.91                1442.37                1449.16
 Force Cnst:      2.1047                 1.8401                 1.5433
 Red. Mass:       1.7325                 1.5012                 1.2473
 IR Intens:      159.078                182.826                 17.398
 Frequency:      1460.54                1463.90                1585.09
 Force Cnst:      1.4734                 1.3371                14.9600
 Red. Mass:       1.1723                 1.0590                10.1058
 IR Intens:       44.688                 18.160               1242.198
 Frequency:      1743.10                3045.88                3063.30
 Force Cnst:     17.7324                 5.8326                 5.7457
 Red. Mass:       9.9054                 1.0671                 1.0392
 IR Intens:      447.141                 14.578                  3.586
 Frequency:      3069.01                3111.16                3128.10
 Force Cnst:      5.8885                 6.2550                 6.3325
 Red. Mass:       1.0611                 1.0968                 1.0984
 IR Intens:       28.274                  7.375                 37.823
 Frequency:      3140.88                3169.85                3739.34
 Force Cnst:      6.3773                 6.5435                 8.7979
 Red. Mass:       1.0972                 1.1053                 1.0679
 IR Intens:        8.510                 18.587                123.966

 STANDARD THERMODYNAMIC QUANTITIES AT   298.15 K  AND     1.00 ATM

   This Molecule has  0 Imaginary Frequencies
   Zero point vibrational energy:       82.428 kcal/mol

   Atom    1 Element C  Has Mass   12.00000
   Atom    2 Element C  Has Mass   12.00000
   Atom    3 Element O  Has Mass   15.99491
   Atom    4 Element O  Has Mass   15.99491
   Atom    5 Element C  Has Mass   12.00000
   Atom    6 Element H  Has Mass    1.00783
   Atom    7 Element H  Has Mass    1.00783
   Atom    8 Element C  Has Mass   12.00000
   Atom    9 Element H  Has Mass    1.00783
   Atom   10 Element H  Has Mass    1.00783
   Atom   11 Element C  Has Mass   12.00000
   Atom   12 Element H  Has Mass    1.00783
   Atom   13 Element H  Has Mass    1.00783
   Atom   14 Element H  Has Mass    1.00783
   Atom   15 Element O  Has Mass   15.99491
   Atom   16 Element O  Has Mass   15.99491
   Atom   17 Element O  Has Mass   15.99491
   Atom   18 Element H  Has Mass    1.00783
   Molecular Mass:   148.037190 amu
   Principal axes and moments of inertia in amu*Bohr^2:
                             1           2           3
    Eigenvalues --      973.66856  2896.85859  3269.47147
          X              -0.00597     0.03779     0.99927
          Y              -0.41141     0.91070    -0.03690
          Z               0.91143     0.41133    -0.01011
   Rotational Symmetry Number is   1
   The Molecule is an Asymmetric Top
   Translational Enthalpy:        0.889 kcal/mol
   Rotational Enthalpy:           0.889 kcal/mol
   Vibrational Enthalpy:         88.565 kcal/mol
   gas constant (RT):             0.592 kcal/mol
   Translational Entropy:        40.887  cal/mol.K
   Rotational Entropy:           30.601  cal/mol.K
   Vibrational Entropy:          43.105  cal/mol.K

   Total Enthalpy:               90.935 kcal/mol
   Total Entropy:               114.593  cal/mol.K

 Total job time:  36529.90s(wall), 508213.84s(cpu)
        *  Thank you very much for using Q-Chem.  Have a nice day.  *
