 Q-Chem 5.0, Q-Chem, Inc., Pleasanton, CA (2017)
 Q-Chem 5.0.2 for Intel X86 EM64T Linux

User input:
--------------------------------------------------------------
$molecule
-2 1
C       -0.1928844863    1.3973619412   -0.7596306468
C        0.1457635710    2.1165092271   -2.0766588226
O       -0.4360153634    3.2217499175   -2.2635545849
O        0.9550017147    1.5808109696   -2.8760813664
C        0.5468369488    0.0882546846   -0.5057672717
H       -1.2771715235    1.2369608497   -0.7666866350
H       -0.0029472380    2.1091997315    0.0511056504
C        0.2408523803   -0.6232818498    0.8195308838
H        1.6285082447    0.2589472588   -0.5285063144
H        0.3208523215   -0.6246726777   -1.3073351488
C       -1.2427061144   -0.9850170876    0.9744246225
H       -1.8988222861   -0.1150403973    0.8775378654
H       -1.3970267861   -1.4341149928    1.9599944137
H       -1.5201883496   -1.7202935753    0.2116197348
O        1.0517660748   -1.6635896798    1.0649226578
O        0.5250252117    0.4489185285    1.8603502138
O        0.8656981546   -0.2707558648    3.0511539665
H        1.1621288065   -1.1132212080    2.5696364718
$end

$rem
jobtype               freq
method                wb97x-v
basis                 def2-tzvpd
symmetry              off
sym_ignore            true
incdft                false
incfock               0
!scf_algorithm        diis_gdm
scf_convergence       8
thresh                14
!purecart             112
max_scf_cycles        1000
geom_opt_max_cycles   500
geom_opt_dmax         100
geom_opt_tol_gradient 10
solvent_method        pcm
ideriv                1
rpath_tol_displacement 1000
rpath_max_cycles      100
rpath_direction       1
!scf_guess            read
scf_guess             read
$end

$pcm
theory              cosmo
method              iswig
Radii               bondi
vdwScale            1.20
hpoints             110
heavypoints         110
$end

$solvent
dielectric 78.400000
$end

--------------------------------------------------------------

   17    -571.7272304945      3.73E-09 Convergence criterion met
 Total energy in the final basis set = -571.72723049
   13    -571.7272295070      9.31E-09 Convergence criterion met
 Total energy in the final basis set = -571.72722951
   13    -571.7272295182      8.94E-09 Convergence criterion met
 Total energy in the final basis set = -571.72722952
   13    -571.7272295581      9.72E-09 Convergence criterion met
 Total energy in the final basis set = -571.72722956
   13    -571.7272295511      9.29E-09 Convergence criterion met
 Total energy in the final basis set = -571.72722955
   13    -571.7272296141      9.54E-09 Convergence criterion met
 Total energy in the final basis set = -571.72722961
   13    -571.7272295968      9.03E-09 Convergence criterion met
 Total energy in the final basis set = -571.72722960
   13    -571.7272296360      9.36E-09 Convergence criterion met
 Total energy in the final basis set = -571.72722988
   13    -571.7272297914      9.11E-09 Convergence criterion met
 Total energy in the final basis set = -571.72722979
   14    -571.7272303758      4.95E-09 Convergence criterion met
 Total energy in the final basis set = -571.72723038
   16    -571.7272303849      4.25E-09 Convergence criterion met
 Total energy in the final basis set = -571.72723038
   16    -571.7272299976      7.95E-09 Convergence criterion met
 Total energy in the final basis set = -571.72723000
   14    -571.7272300718      4.52E-09 Convergence criterion met
 Total energy in the final basis set = -571.72723007
   14    -571.7272303139      4.73E-09 Convergence criterion met
 Total energy in the final basis set = -571.72723031
   14    -571.7272303535      9.70E-09 Convergence criterion met
 Total energy in the final basis set = -571.72723035

                    Orbital Energies (a.u.)
 --------------------------------------------------------------

 Alpha MOs
 -- Occupied --
-19.224 -19.220 -19.139 -19.135 -19.114 -10.338 -10.328 -10.243
-10.238 -10.232  -1.216  -1.141  -1.059  -1.046  -0.967  -0.881
 -0.823  -0.756  -0.655  -0.602  -0.595  -0.561  -0.551  -0.533
 -0.517  -0.510  -0.502  -0.494  -0.463  -0.456  -0.447  -0.433
 -0.416  -0.401  -0.345  -0.344  -0.332  -0.330  -0.324  -0.297

          Ground-State Mulliken Net Atomic Charges

     Atom                 Charge (a.u.)
  ----------------------------------------
      1 C                    -0.200490
      2 C                    -0.019214
      3 O                    -0.716822
      4 O                    -0.691967
      5 C                    -0.236227
      6 H                     0.190639
      7 H                     0.201875
      8 C                     1.060717
      9 H                     0.130077
     10 H                     0.224067
     11 C                    -1.293913
     12 H                     0.262616
     13 H                     0.235363
     14 H                     0.245642
     15 O                    -0.980078
     16 O                    -0.274073
     17 O                    -0.491313
     18 H                     0.353102
  ----------------------------------------
  Sum of atomic charges =    -2.000000

                    Cartesian Multipole Moments
 -----------------------------------------------------------------
    Charge (ESU x 10^10)
                -9.6064
    Dipole Moment (Debye)
         X      -6.5185      Y      -8.5673      Z       4.9639
       Tot      11.8546
    Quadrupole Moments (Debye-Ang)
        XX     -74.5605     XY       6.2620     YY    -113.4673
        XZ      -0.6896     YZ      36.2081     ZZ    -125.2619

             Standard Nuclear Orientation (Angstroms)
    I     Atom           X                Y                Z
 ----------------------------------------------------------------
    1      C      -0.1928844863     1.3973619412    -0.7596306468
    2      C       0.1457635710     2.1165092271    -2.0766588226
    3      O      -0.4360153634     3.2217499175    -2.2635545849
    4      O       0.9550017147     1.5808109696    -2.8760813664
    5      C       0.5468369488     0.0882546846    -0.5057672717
    6      H      -1.2771715235     1.2369608497    -0.7666866350
    7      H      -0.0029472380     2.1091997315     0.0511056504
    8      C       0.2408523803    -0.6232818498     0.8195308838
    9      H       1.6285082447     0.2589472588    -0.5285063144
   10      H       0.3208523215    -0.6246726777    -1.3073351488
   11      C      -1.2427061144    -0.9850170876     0.9744246225
   12      H      -1.8988222861    -0.1150403973     0.8775378654
   13      H      -1.3970267861    -1.4341149928     1.9599944137
   14      H      -1.5201883496    -1.7202935753     0.2116197348
   15      O       1.0517660748    -1.6635896798     1.0649226578
   16      O       0.5250252117     0.4489185285     1.8603502138
   17      O       0.8656981546    -0.2707558648     3.0511539665
   18      H       1.1621288065    -1.1132212080     2.5696364718
 ----------------------------------------------------------------

 Frequency:        44.39                  63.69                  97.54
 Force Cnst:      0.0125                 0.0087                 0.0137
 Red. Mass:      10.7874                 3.6578                 2.4377
 IR Intens:        0.483                 21.765                  1.700
 Frequency:       121.72                 147.45                 214.75
 Force Cnst:      0.0625                 0.0658                 0.0885
 Red. Mass:       7.1556                 5.1403                 3.2587
 IR Intens:        3.171                 19.268                  5.584
 Frequency:       249.10                 309.32                 334.69
 Force Cnst:      0.0474                 0.2759                 0.1805
 Red. Mass:       1.2961                 4.8948                 2.7344
 IR Intens:        3.008                 37.869                 14.092
 Frequency:       390.60                 422.49                 489.56
 Force Cnst:      0.4162                 0.4873                 0.6077
 Red. Mass:       4.6298                 4.6335                 4.3032
 IR Intens:       52.966                  2.492                 34.366
 Frequency:       557.16                 586.77                 635.56
 Force Cnst:      0.7878                 0.3764                 1.0277
 Red. Mass:       4.3074                 1.8555                 4.3182
 IR Intens:       28.770                  9.754                 67.247
 Frequency:       678.09                 720.47                 787.37
 Force Cnst:      1.5514                 1.5546                 0.6351
 Red. Mass:       5.7266                 5.0831                 1.7387
 IR Intens:       93.254                 63.888                 13.169
 Frequency:       824.73                 877.96                 927.19
 Force Cnst:      0.4433                 1.3351                 1.8144
 Red. Mass:       1.1062                 2.9398                 3.5822
 IR Intens:      151.484                 61.016                 28.283
 Frequency:       955.93                1012.21                1029.42
 Force Cnst:      0.9887                 2.2081                 1.4810
 Red. Mass:       1.8363                 3.6579                 2.3719
 IR Intens:        3.247                 27.943                  8.130
 Frequency:      1091.54                1105.63                1173.33
 Force Cnst:      1.6714                 1.8382                 1.5060
 Red. Mass:       2.3810                 2.5523                 1.8567
 IR Intens:       31.698                 23.271                118.032
 Frequency:      1232.95                1250.71                1299.27
 Force Cnst:      1.4792                 1.8616                 2.3522
 Red. Mass:       1.6515                 2.0199                 2.3649
 IR Intens:      146.965                 47.076                117.812
 Frequency:      1315.11                1379.07                1384.60
 Force Cnst:      1.1872                 2.2892                 1.5830
 Red. Mass:       1.1651                 2.0429                 1.4015
 IR Intens:       19.532                187.654                 70.957
 Frequency:      1434.38                1452.29                1465.04
 Force Cnst:      3.7095                 1.7215                 1.3636
 Red. Mass:       3.0601                 1.3853                 1.0783
 IR Intens:      297.161                 51.215                  2.945
 Frequency:      1468.08                1476.04                1503.79
 Force Cnst:      1.3977                 1.3499                 1.6490
 Red. Mass:       1.1007                 1.0516                 1.2376
 IR Intens:       66.191                  3.045                260.069
 Frequency:      1579.20                2949.60                3047.37
 Force Cnst:     14.6366                 5.4594                 5.6814
 Red. Mass:       9.9613                 1.0650                 1.0384
 IR Intens:     1236.187                700.185                 33.126
 Frequency:      3056.11                3062.15                3091.38
 Force Cnst:      5.8245                 5.8619                 6.1936
 Red. Mass:       1.0585                 1.0610                 1.1000
 IR Intens:       39.050                 50.966                  8.393
 Frequency:      3110.84                3121.07                3129.26
 Force Cnst:      6.2896                 6.3251                 6.3616
 Red. Mass:       1.1031                 1.1021                 1.1026
 IR Intens:       93.967                 61.839                 63.553

 STANDARD THERMODYNAMIC QUANTITIES AT   298.15 K  AND     1.00 ATM

   This Molecule has  0 Imaginary Frequencies
   Zero point vibrational energy:       83.854 kcal/mol

   Atom    1 Element C  Has Mass   12.00000
   Atom    2 Element C  Has Mass   12.00000
   Atom    3 Element O  Has Mass   15.99491
   Atom    4 Element O  Has Mass   15.99491
   Atom    5 Element C  Has Mass   12.00000
   Atom    6 Element H  Has Mass    1.00783
   Atom    7 Element H  Has Mass    1.00783
   Atom    8 Element C  Has Mass   12.00000
   Atom    9 Element H  Has Mass    1.00783
   Atom   10 Element H  Has Mass    1.00783
   Atom   11 Element C  Has Mass   12.00000
   Atom   12 Element H  Has Mass    1.00783
   Atom   13 Element H  Has Mass    1.00783
   Atom   14 Element H  Has Mass    1.00783
   Atom   15 Element O  Has Mass   15.99491
   Atom   16 Element O  Has Mass   15.99491
   Atom   17 Element O  Has Mass   15.99491
   Atom   18 Element H  Has Mass    1.00783
   Molecular Mass:   148.037190 amu
   Principal axes and moments of inertia in amu*Bohr^2:
                             1           2           3
    Eigenvalues --      642.13334  2957.14853  3066.21167
          X               0.06024    -0.25074     0.96618
          Y              -0.58125     0.77809     0.23817
          Z               0.81149     0.57594     0.09887
   Rotational Symmetry Number is   1
   The Molecule is an Asymmetric Top
   Translational Enthalpy:        0.889 kcal/mol
   Rotational Enthalpy:           0.889 kcal/mol
   Vibrational Enthalpy:         88.656 kcal/mol
   gas constant (RT):             0.592 kcal/mol
   Translational Entropy:        40.887  cal/mol.K
   Rotational Entropy:           30.144  cal/mol.K
   Vibrational Entropy:          30.983  cal/mol.K

   Total Enthalpy:               91.025 kcal/mol
   Total Entropy:               102.014  cal/mol.K

 Total job time:  35171.00s(wall), 495439.20s(cpu)
        *  Thank you very much for using Q-Chem.  Have a nice day.  *
