 Q-Chem 5.0, Q-Chem, Inc., Pleasanton, CA (2017)
 Q-Chem 5.0.2 for Intel X86 EM64T Linux

User input:
--------------------------------------------------------------
$molecule
-2 1
C        2.0078351379    1.5435570458    0.3235128568
C        1.0699582368    0.3938107598   -0.0709485059
H        2.2682679340    1.5094688133    1.3869173638
H        2.9259054073    1.4844311941   -0.2690920613
H        1.5195799862    2.5010070823    0.1135407976
C       -0.1089655462    0.2990726905    0.9088619794
C       -1.1962996713   -0.6848338676    0.4899284112
H        0.2917153391    0.0227860867    1.8928394923
H       -0.5436328081    1.2988686315    1.0138100831
H       -0.7505937852   -1.6108489456    0.1178955245
H       -1.7953069000   -0.9530006840    1.3711681246
O        0.7633514506    0.3852193927   -1.3714744508
O        1.8419402589   -0.8892192819    0.2414457901
O        2.5560378704   -1.2010413123   -0.9603501296
H        1.9443999673   -0.6666233928   -1.5718690247
C       -2.2026471095   -0.1655834099   -0.5473913079
O       -2.6374425805   -0.9962355976   -1.3931186515
O       -2.5797162800    1.0329992273   -0.4553632820
$end

$rem
jobtype               freq
method                wb97x-v
basis                 def2-tzvpd
symmetry              off
sym_ignore            true
incdft                false
incfock               0
!scf_algorithm        diis_gdm
scf_convergence       8
thresh                14
!purecart             112
max_scf_cycles        1000
geom_opt_max_cycles   500
geom_opt_dmax         100
geom_opt_tol_gradient 10
solvent_method        pcm
ideriv                1
rpath_tol_displacement 1000
rpath_max_cycles      100
rpath_direction       1
!scf_guess            read
scf_guess             read
$end

$pcm
theory              cosmo
method              iswig
Radii               bondi
vdwScale            1.20
hpoints             110
heavypoints         110
$end

$solvent
dielectric 78.400000
$end

--------------------------------------------------------------

   17    -571.7266677782      6.13E-09 Convergence criterion met
 Total energy in the final basis set = -571.72666778
   15    -571.7266668221      6.03E-09 Convergence criterion met
 Total energy in the final basis set = -571.72666682
   14    -571.7266668088      5.62E-09 Convergence criterion met
 Total energy in the final basis set = -571.72666681
   14    -571.7266668660      5.20E-09 Convergence criterion met
 Total energy in the final basis set = -571.72666687
   14    -571.7266668700      5.18E-09 Convergence criterion met
 Total energy in the final basis set = -571.72666687
   14    -571.7266667501      6.78E-09 Convergence criterion met
 Total energy in the final basis set = -571.72666675
   14    -571.7266667389      6.38E-09 Convergence criterion met
 Total energy in the final basis set = -571.72666674
   14    -571.7266669636      6.70E-09 Convergence criterion met
 Total energy in the final basis set = -571.72666725
   14    -571.7266672485      4.98E-09 Convergence criterion met
 Total energy in the final basis set = -571.72666725
   15    -571.7266675863      8.33E-09 Convergence criterion met
 Total energy in the final basis set = -571.72666759
   14    -571.7266675804      5.95E-09 Convergence criterion met
 Total energy in the final basis set = -571.72666758
   15    -571.7266667787      6.42E-09 Convergence criterion met
 Total energy in the final basis set = -571.72666678
   14    -571.7266667785      5.30E-09 Convergence criterion met
 Total energy in the final basis set = -571.72666678
   14    -571.7266676375      9.15E-09 Convergence criterion met
 Total energy in the final basis set = -571.72666764
   14    -571.7266676351      9.89E-09 Convergence criterion met
 Total energy in the final basis set = -571.72666764

                    Orbital Energies (a.u.)
 --------------------------------------------------------------

 Alpha MOs
 -- Occupied --
-19.221 -19.219 -19.134 -19.134 -19.113 -10.335 -10.327 -10.240
-10.238 -10.232  -1.214  -1.137  -1.059  -1.042  -0.964  -0.877
 -0.829  -0.750  -0.652  -0.610  -0.582  -0.562  -0.545  -0.531
 -0.519  -0.511  -0.493  -0.487  -0.465  -0.455  -0.450  -0.426
 -0.421  -0.404  -0.344  -0.335  -0.330  -0.326  -0.323  -0.296

          Ground-State Mulliken Net Atomic Charges

     Atom                 Charge (a.u.)
  ----------------------------------------
      1 C                    -1.312664
      2 C                     1.108811
      3 H                     0.222994
      4 H                     0.241638
      5 H                     0.250636
      6 C                    -0.480068
      7 C                    -0.202059
      8 H                     0.229170
      9 H                     0.228074
     10 H                     0.134373
     11 H                     0.202792
     12 O                    -0.961556
     13 O                    -0.314877
     14 O                    -0.446455
     15 H                     0.377615
     16 C                     0.177511
     17 O                    -0.735824
     18 O                    -0.720111
  ----------------------------------------
  Sum of atomic charges =    -2.000000

                    Cartesian Multipole Moments
 -----------------------------------------------------------------
    Charge (ESU x 10^10)
                -9.6064
    Dipole Moment (Debye)
         X       6.6234      Y       1.6231      Z      10.5129
       Tot      12.5310
    Quadrupole Moments (Debye-Ang)
        XX    -120.8582     XY       8.0862     YY     -79.0174
        XZ     -12.8263     YZ      -1.9354     ZZ     -79.1606

             Standard Nuclear Orientation (Angstroms)
    I     Atom           X                Y                Z
 ----------------------------------------------------------------
    1      C       2.0078351379     1.5435570458     0.3235128568
    2      C       1.0699582368     0.3938107598    -0.0709485059
    3      H       2.2682679340     1.5094688133     1.3869173638
    4      H       2.9259054073     1.4844311941    -0.2690920613
    5      H       1.5195799862     2.5010070823     0.1135407976
    6      C      -0.1089655462     0.2990726905     0.9088619794
    7      C      -1.1962996713    -0.6848338676     0.4899284112
    8      H       0.2917153391     0.0227860867     1.8928394923
    9      H      -0.5436328081     1.2988686315     1.0138100831
   10      H      -0.7505937852    -1.6108489456     0.1178955245
   11      H      -1.7953069000    -0.9530006840     1.3711681246
   12      O       0.7633514506     0.3852193927    -1.3714744508
   13      O       1.8419402589    -0.8892192819     0.2414457901
   14      O       2.5560378704    -1.2010413123    -0.9603501296
   15      H       1.9443999673    -0.6666233928    -1.5718690247
   16      C      -2.2026471095    -0.1655834099    -0.5473913079
   17      O      -2.6374425805    -0.9962355976    -1.3931186515
   18      O      -2.5797162800     1.0329992273    -0.4553632820
 ----------------------------------------------------------------

 Frequency:        62.21                  75.23                  97.50
 Force Cnst:      0.0154                 0.0349                 0.0318
 Red. Mass:       6.7398                10.4671                 5.6702
 IR Intens:        4.469                  0.311                  7.971
 Frequency:       122.91                 211.32                 245.60
 Force Cnst:      0.0476                 0.1393                 0.1354
 Red. Mass:       5.3508                 5.2945                 3.8108
 IR Intens:        7.069                  9.055                 13.171
 Frequency:       256.14                 311.99                 348.54
 Force Cnst:      0.0399                 0.1440                 0.2326
 Red. Mass:       1.0329                 2.5103                 3.2502
 IR Intens:        1.133                 45.088                  8.393
 Frequency:       393.89                 424.47                 479.48
 Force Cnst:      0.3460                 0.3522                 0.4611
 Red. Mass:       3.7847                 3.3178                 3.4043
 IR Intens:       35.663                  9.620                 34.501
 Frequency:       574.31                 590.50                 619.07
 Force Cnst:      0.8081                 0.6288                 1.0051
 Red. Mass:       4.1581                 3.0607                 4.4513
 IR Intens:       16.509                 43.854                 64.477
 Frequency:       662.85                 709.51                 809.20
 Force Cnst:      1.4420                 1.1093                 0.5669
 Red. Mass:       5.5706                 3.7402                 1.4694
 IR Intens:      128.258                 15.319                 82.745
 Frequency:       836.91                 879.89                 950.68
 Force Cnst:      0.7392                 1.6934                 0.9045
 Red. Mass:       1.7913                 3.7125                 1.6986
 IR Intens:       45.740                 79.730                  3.823
 Frequency:       972.61                 982.90                1020.52
 Force Cnst:      1.3071                 1.3515                 5.9771
 Red. Mass:       2.3453                 2.3744                 9.7408
 IR Intens:       18.166                 57.254                  5.263
 Frequency:      1057.81                1098.27                1165.88
 Force Cnst:      1.1255                 1.5872                 1.9951
 Red. Mass:       1.7072                 2.2334                 2.4912
 IR Intens:       43.065                 59.081                148.442
 Frequency:      1202.28                1241.71                1311.33
 Force Cnst:      1.1174                 1.2727                 2.8170
 Red. Mass:       1.3120                 1.4010                 2.7804
 IR Intens:        6.272                 34.466                208.794
 Frequency:      1338.24                1378.80                1390.38
 Force Cnst:      1.8457                 1.5011                 2.1264
 Red. Mass:       1.7492                 1.3402                 1.8669
 IR Intens:       92.306                 25.485                 62.202
 Frequency:      1439.38                1448.95                1457.39
 Force Cnst:      3.8280                 1.3581                 1.6735
 Red. Mass:       3.1360                 1.0979                 1.3373
 IR Intens:      257.018                 16.534                132.365
 Frequency:      1467.72                1471.03                1513.27
 Force Cnst:      1.3595                 1.3481                 1.6815
 Red. Mass:       1.0712                 1.0573                 1.2463
 IR Intens:       13.247                  1.937                300.284
 Frequency:      1570.75                2916.59                3035.01
 Force Cnst:     13.9063                 5.3388                 5.7795
 Red. Mass:       9.5664                 1.0652                 1.0649
 IR Intens:     1260.589                720.108                 27.993
 Frequency:      3039.75                3050.56                3094.62
 Force Cnst:      5.6492                 5.8461                 6.1928
 Red. Mass:       1.0377                 1.0662                 1.0975
 IR Intens:       50.273                 75.930                 16.020
 Frequency:      3114.03                3116.55                3123.53
 Force Cnst:      6.2972                 6.2601                 6.3386
 Red. Mass:       1.1022                 1.0939                 1.1027
 IR Intens:       69.840                 59.000                 67.844

 STANDARD THERMODYNAMIC QUANTITIES AT   298.15 K  AND     1.00 ATM

   This Molecule has  0 Imaginary Frequencies
   Zero point vibrational energy:       83.890 kcal/mol

   Atom    1 Element C  Has Mass   12.00000
   Atom    2 Element C  Has Mass   12.00000
   Atom    3 Element H  Has Mass    1.00783
   Atom    4 Element H  Has Mass    1.00783
   Atom    5 Element H  Has Mass    1.00783
   Atom    6 Element C  Has Mass   12.00000
   Atom    7 Element C  Has Mass   12.00000
   Atom    8 Element H  Has Mass    1.00783
   Atom    9 Element H  Has Mass    1.00783
   Atom   10 Element H  Has Mass    1.00783
   Atom   11 Element H  Has Mass    1.00783
   Atom   12 Element O  Has Mass   15.99491
   Atom   13 Element O  Has Mass   15.99491
   Atom   14 Element O  Has Mass   15.99491
   Atom   15 Element H  Has Mass    1.00783
   Atom   16 Element C  Has Mass   12.00000
   Atom   17 Element O  Has Mass   15.99491
   Atom   18 Element O  Has Mass   15.99491
   Molecular Mass:   148.037190 amu
   Principal axes and moments of inertia in amu*Bohr^2:
                             1           2           3
    Eigenvalues --      772.34695  2236.32944  2470.40942
          X               0.99643    -0.04161    -0.07346
          Y              -0.00038     0.86789    -0.49676
          Z               0.08442     0.49501     0.86477
   Rotational Symmetry Number is   1
   The Molecule is an Asymmetric Top
   Translational Enthalpy:        0.889 kcal/mol
   Rotational Enthalpy:           0.889 kcal/mol
   Vibrational Enthalpy:         88.543 kcal/mol
   gas constant (RT):             0.592 kcal/mol
   Translational Entropy:        40.887  cal/mol.K
   Rotational Entropy:           29.835  cal/mol.K
   Vibrational Entropy:          28.938  cal/mol.K

   Total Enthalpy:               90.912 kcal/mol
   Total Entropy:                99.660  cal/mol.K

 Total job time:  38451.93s(wall), 541996.48s(cpu)
        *  Thank you very much for using Q-Chem.  Have a nice day.  *
