 Q-Chem 5.0, Q-Chem, Inc., Pleasanton, CA (2017)
 Q-Chem 5.0.2 for Intel X86 EM64T Linux

User input:
--------------------------------------------------------------
$molecule
-2 1
C        1.5848386864    1.6205053443   -0.2837823599
C        1.1707880111    0.1859076976   -0.0582512461
H        1.9386555496    2.0622234057    0.6521187771
H        2.3940285293    1.6665672809   -1.0209824455
H        0.7412844520    2.2066031267   -0.6560299954
C       -0.2741441362    0.1491696871    1.1993299894
C       -1.3691484359   -0.5632399626    0.6569445585
H        0.2115298580   -0.2710530258    2.0767650686
H       -0.3743990849    1.2326028605    1.2619532896
H       -0.2513308488   -0.7374588429   -0.8872539032
H       -1.5113402904   -1.6069855323    0.9304796296
O        0.6336691360   -0.3983727911   -1.1992839682
O        1.9883372803   -0.5734246896    0.6218698408
O        3.5000563134   -0.8201862295   -0.2074238785
H        3.1856379981   -1.5419705929   -0.7669903956
C       -2.4281465826    0.0629222637   -0.1411488887
O       -3.4261193203   -0.6611717276   -0.4890090324
O       -2.3337541153    1.2960587279   -0.4625410400
$end

$rem
jobtype               freq
method                wb97x-v
basis                 def2-tzvpd
symmetry              off
sym_ignore            true
incdft                false
incfock               0
!scf_algorithm        diis_gdm
scf_convergence       8
thresh                14
!purecart             112
max_scf_cycles        1000
geom_opt_max_cycles   500
geom_opt_dmax         100
geom_opt_tol_gradient 10
solvent_method        pcm
ideriv                1
rpath_tol_displacement 1000
rpath_max_cycles      100
rpath_direction       1
!scf_guess            read
scf_guess             read
$end

$pcm
theory              cosmo
method              iswig
Radii               bondi
vdwScale            1.20
hpoints             110
heavypoints         110
$end

$solvent
dielectric 78.400000
$end

--------------------------------------------------------------

   18    -571.6389181959      7.24E-09 Convergence criterion met
 Total energy in the final basis set = -571.63891820
   17    -571.6389171727      4.56E-09 Convergence criterion met
 Total energy in the final basis set = -571.63891717
   16    -571.6389171978      6.65E-09 Convergence criterion met
 Total energy in the final basis set = -571.63891720
   16    -571.6389173056      8.61E-09 Convergence criterion met
 Total energy in the final basis set = -571.63891731
   16    -571.6389172842      6.20E-09 Convergence criterion met
 Total energy in the final basis set = -571.63891728
   17    -571.6389171507      3.10E-09 Convergence criterion met
 Total energy in the final basis set = -571.63891715
   16    -571.6389171664      6.13E-09 Convergence criterion met
 Total energy in the final basis set = -571.63891717
   16    -571.6389177235      8.16E-09 Convergence criterion met
 Total energy in the final basis set = -571.63891802
   17    -571.6389180823      3.57E-09 Convergence criterion met
 Total energy in the final basis set = -571.63891808
   17    -571.6389180192      5.66E-09 Convergence criterion met
 Total energy in the final basis set = -571.63891802
   17    -571.6389180337      4.01E-09 Convergence criterion met
 Total energy in the final basis set = -571.63891803
   17    -571.6389172517      3.52E-09 Convergence criterion met
 Total energy in the final basis set = -571.63891725
   16    -571.6389173346      5.87E-09 Convergence criterion met
 Total energy in the final basis set = -571.63891733
   17    -571.6389180034      4.26E-09 Convergence criterion met
 Total energy in the final basis set = -571.63891800
   17    -571.6389181072      3.68E-09 Convergence criterion met
 Total energy in the final basis set = -571.63891811

                    Orbital Energies (a.u.)
 --------------------------------------------------------------

 Alpha MOs
 -- Occupied --
-19.244 -19.192 -19.186 -19.119 -19.118 -10.341 -10.321 -10.263
-10.245 -10.203  -1.188  -1.116  -1.112  -1.032  -1.019  -0.866
 -0.846  -0.721  -0.675  -0.610  -0.589  -0.562  -0.560  -0.538
 -0.525  -0.505  -0.492  -0.486  -0.481  -0.475  -0.459  -0.434
 -0.395  -0.381  -0.375  -0.350  -0.329  -0.327  -0.309  -0.235

          Ground-State Mulliken Net Atomic Charges

     Atom                 Charge (a.u.)
  ----------------------------------------
      1 C                    -1.111403
      2 C                     0.778136
      3 H                     0.244783
      4 H                     0.228664
      5 H                     0.220442
      6 C                    -0.249538
      7 C                    -0.666360
      8 H                     0.221113
      9 H                     0.213350
     10 H                     0.333284
     11 H                     0.246554
     12 O                    -0.539641
     13 O                    -0.403456
     14 O                    -0.627029
     15 H                     0.297336
     16 C                     0.350377
     17 O                    -0.785910
     18 O                    -0.750703
  ----------------------------------------
  Sum of atomic charges =    -2.000000

                    Cartesian Multipole Moments
 -----------------------------------------------------------------
    Charge (ESU x 10^10)
                -9.6064
    Dipole Moment (Debye)
         X      10.2108      Y       0.3270      Z       3.4242
       Tot      10.7746
    Quadrupole Moments (Debye-Ang)
        XX    -154.7244     XY       6.7741     YY     -73.2075
        XZ     -10.3636     YZ       3.4988     ZZ     -71.7671

             Standard Nuclear Orientation (Angstroms)
    I     Atom           X                Y                Z
 ----------------------------------------------------------------
    1      C       1.5848386864     1.6205053443    -0.2837823599
    2      C       1.1707880111     0.1859076976    -0.0582512461
    3      H       1.9386555496     2.0622234057     0.6521187771
    4      H       2.3940285293     1.6665672809    -1.0209824455
    5      H       0.7412844520     2.2066031267    -0.6560299954
    6      C      -0.2741441362     0.1491696871     1.1993299894
    7      C      -1.3691484359    -0.5632399626     0.6569445585
    8      H       0.2115298580    -0.2710530258     2.0767650686
    9      H      -0.3743990849     1.2326028605     1.2619532896
   10      H      -0.2513308488    -0.7374588429    -0.8872539032
   11      H      -1.5113402904    -1.6069855323     0.9304796296
   12      O       0.6336691360    -0.3983727911    -1.1992839682
   13      O       1.9883372803    -0.5734246896     0.6218698408
   14      O       3.5000563134    -0.8201862295    -0.2074238785
   15      H       3.1856379981    -1.5419705929    -0.7669903956
   16      C      -2.4281465826     0.0629222637    -0.1411488887
   17      O      -3.4261193203    -0.6611717276    -0.4890090324
   18      O      -2.3337541153     1.2960587279    -0.4625410400
 ----------------------------------------------------------------

 Frequency:      -923.85                  53.96                  79.90
 Force Cnst:      5.7247                 0.0098                 0.0290
 Red. Mass:      11.3843                 5.7253                 7.6994
 IR Intens:    14041.067                 17.333                  6.569
 Frequency:        96.42                 122.97                 162.82
 Force Cnst:      0.0215                 0.0135                 0.0894
 Red. Mass:       3.9255                 1.5118                 5.7242
 IR Intens:       19.493                123.516                 15.348
 Frequency:       165.72                 198.07                 248.60
 Force Cnst:      0.0579                 0.0260                 0.1339
 Red. Mass:       3.5761                 1.1244                 3.6759
 IR Intens:       36.519                  3.425                  1.593
 Frequency:       278.92                 321.99                 329.36
 Force Cnst:      0.1192                 0.4169                 0.2799
 Red. Mass:       2.5998                 6.8250                 4.3801
 IR Intens:       21.812                129.962                 11.440
 Frequency:       420.81                 478.11                 544.75
 Force Cnst:      0.3085                 0.7137                 0.7893
 Red. Mass:       2.9564                 5.2989                 4.5145
 IR Intens:        3.027                 23.200                 27.936
 Frequency:       572.54                 612.87                 625.39
 Force Cnst:      0.2943                 0.9954                 0.4954
 Red. Mass:       1.5236                 4.4979                 2.1498
 IR Intens:       26.293                 42.852                 69.450
 Frequency:       651.26                 707.75                 814.05
 Force Cnst:      0.6561                 0.3794                 3.5630
 Red. Mass:       2.6254                 1.2854                 9.1257
 IR Intens:       33.000                141.141                 45.081
 Frequency:       847.52                 867.71                 929.43
 Force Cnst:      2.0063                 1.2385                 0.5745
 Red. Mass:       4.7407                 2.7920                 1.1289
 IR Intens:      172.234                 22.487                155.580
 Frequency:       978.30                 997.24                1043.07
 Force Cnst:      1.1803                 1.0489                 0.9994
 Red. Mass:       2.0931                 1.7902                 1.5591
 IR Intens:       64.489                114.682                 82.451
 Frequency:      1114.45                1149.80                1195.75
 Force Cnst:      0.9723                 0.9693                 2.2280
 Red. Mass:       1.3286                 1.2444                 2.6448
 IR Intens:      236.681                314.325                247.170
 Frequency:      1219.78                1292.95                1330.20
 Force Cnst:      1.5660                 1.9826                 4.0407
 Red. Mass:       1.7864                 2.0129                 3.8759
 IR Intens:      203.753                 89.624                907.721
 Frequency:      1377.59                1406.53                1435.57
 Force Cnst:      1.4438                 1.9233                 3.0563
 Red. Mass:       1.2912                 1.6501                 2.5171
 IR Intens:       98.222                361.502                691.029
 Frequency:      1456.57                1466.38                1471.91
 Force Cnst:      3.2288                 1.3585                 1.4031
 Red. Mass:       2.5830                 1.0723                 1.0992
 IR Intens:      536.233                 32.236                 14.133
 Frequency:      1501.43                3050.65                3113.21
 Force Cnst:      3.9690                 5.6843                 6.0434
 Red. Mass:       2.9883                 1.0367                 1.0583
 IR Intens:      900.352                 28.866                 59.951
 Frequency:      3122.40                3143.69                3153.79
 Force Cnst:      6.3238                 6.4149                 6.3581
 Red. Mass:       1.1009                 1.1017                 1.0850
 IR Intens:       28.492                 11.304                101.073
 Frequency:      3162.36                3193.98                3830.17
 Force Cnst:      6.3270                 6.6775                 9.2285
 Red. Mass:       1.0738                 1.1110                 1.0677
 IR Intens:      145.482                 33.391                195.063

 STANDARD THERMODYNAMIC QUANTITIES AT   298.15 K  AND     1.00 ATM

   This Molecule has  1 Imaginary Frequencies
   Zero point vibrational energy:       80.540 kcal/mol

   Atom    1 Element C  Has Mass   12.00000
   Atom    2 Element C  Has Mass   12.00000
   Atom    3 Element H  Has Mass    1.00783
   Atom    4 Element H  Has Mass    1.00783
   Atom    5 Element H  Has Mass    1.00783
   Atom    6 Element C  Has Mass   12.00000
   Atom    7 Element C  Has Mass   12.00000
   Atom    8 Element H  Has Mass    1.00783
   Atom    9 Element H  Has Mass    1.00783
   Atom   10 Element H  Has Mass    1.00783
   Atom   11 Element H  Has Mass    1.00783
   Atom   12 Element O  Has Mass   15.99491
   Atom   13 Element O  Has Mass   15.99491
   Atom   14 Element O  Has Mass   15.99491
   Atom   15 Element H  Has Mass    1.00783
   Atom   16 Element C  Has Mass   12.00000
   Atom   17 Element O  Has Mass   15.99491
   Atom   18 Element O  Has Mass   15.99491
   Molecular Mass:   148.037190 amu
   Principal axes and moments of inertia in amu*Bohr^2:
                             1           2           3
    Eigenvalues --      626.87981  2766.75801  2905.01191
          X               0.99806     0.05987    -0.01736
          Y              -0.05551     0.98029     0.18960
          Z               0.02837    -0.18827     0.98171
   Rotational Symmetry Number is   1
   The Molecule is an Asymmetric Top
   Translational Enthalpy:        0.889 kcal/mol
   Rotational Enthalpy:           0.889 kcal/mol
   Vibrational Enthalpy:         85.868 kcal/mol
   gas constant (RT):             0.592 kcal/mol
   Translational Entropy:        40.887  cal/mol.K
   Rotational Entropy:           30.000  cal/mol.K
   Vibrational Entropy:          33.568  cal/mol.K

   Total Enthalpy:               88.238 kcal/mol
   Total Entropy:               104.456  cal/mol.K

 Total job time:  42115.07s(wall), 573142.18s(cpu)
        *  Thank you very much for using Q-Chem.  Have a nice day.  *
