 Q-Chem 5.0, Q-Chem, Inc., Pleasanton, CA (2017)
 Q-Chem 5.0.2 for Intel X86 EM64T Linux

User input:
--------------------------------------------------------------
$molecule
-2 1
C       -2.5985751481   -0.2802614065   -0.5691083054
C       -1.8438262691    0.5904719730    0.4306506328
H       -3.1600616071   -1.0692754136   -0.0659475400
H       -3.2722605941    0.3295485689   -1.1761551439
H       -1.8708508083   -0.7430200473   -1.2445544593
C        1.8742925828   -0.2179715888   -1.0340355699
C        1.3159236921   -1.1255862853   -0.2413023520
H        1.7937462980   -0.3019689508   -2.1144194862
H        2.4204461754    0.6306794016   -0.6310804823
H        1.3930505596   -1.0382758514    0.8407489626
H        0.5385238806    2.2302382662    2.3794398379
O       -1.3865390352    1.6892572786   -0.0093452909
O       -1.6991818917    0.1723710764    1.6029133066
O        0.5267281512    2.7342003959    1.5585916363
H       -0.2061527394    2.3261567691    1.0233659991
C        0.5362334187   -2.3254113289   -0.7482514667
O        0.0684317686   -3.0869189234    0.1398996359
O        0.4105964040   -2.4741530322   -1.9896542694
$end

$rem
jobtype               freq
method                wb97x-v
basis                 def2-tzvpd
symmetry              off
sym_ignore            true
incdft                false
incfock               0
!scf_algorithm        diis_gdm
scf_convergence       8
thresh                14
!purecart             112
max_scf_cycles        1000
geom_opt_max_cycles   500
geom_opt_dmax         100
geom_opt_tol_gradient 10
solvent_method        pcm
ideriv                1
rpath_tol_displacement 1000
rpath_max_cycles      100
rpath_direction       1
!scf_guess            read
scf_guess             read
$end

$pcm
theory              cosmo
method              iswig
Radii               bondi
vdwScale            1.20
hpoints             110
heavypoints         110
$end

$solvent
dielectric 78.400000
$end

--------------------------------------------------------------

   17    -571.8401626916      3.83E-09 Convergence criterion met
 Total energy in the final basis set = -571.84016269
   14    -571.8401617342      7.40E-09 Convergence criterion met
 Total energy in the final basis set = -571.84016173
   14    -571.8401617421      9.64E-09 Convergence criterion met
 Total energy in the final basis set = -571.84016174
   15    -571.8401617171      4.04E-09 Convergence criterion met
 Total energy in the final basis set = -571.84016172
   15    -571.8401617020      3.46E-09 Convergence criterion met
 Total energy in the final basis set = -571.84016170
   14    -571.8401617435      9.42E-09 Convergence criterion met
 Total energy in the final basis set = -571.84016174
   15    -571.8401617480      3.64E-09 Convergence criterion met
 Total energy in the final basis set = -571.84016175
   14    -571.8401620480      9.11E-09 Convergence criterion met
 Total energy in the final basis set = -571.84016206
   15    -571.8401620282      4.21E-09 Convergence criterion met
 Total energy in the final basis set = -571.84016203
   15    -571.8401625943      6.44E-09 Convergence criterion met
 Total energy in the final basis set = -571.84016259
   14    -571.8401625860      9.39E-09 Convergence criterion met
 Total energy in the final basis set = -571.84016259
   16    -571.8401625302      4.54E-09 Convergence criterion met
 Total energy in the final basis set = -571.84016253
   14    -571.8401625285      6.90E-09 Convergence criterion met
 Total energy in the final basis set = -571.84016253
   15    -571.8401616034      3.08E-09 Convergence criterion met
 Total energy in the final basis set = -571.84016160
   14    -571.8401615876      9.38E-09 Convergence criterion met
 Total energy in the final basis set = -571.84016159

                    Orbital Energies (a.u.)
 --------------------------------------------------------------

 Alpha MOs
 -- Occupied --
-19.183 -19.149 -19.147 -19.144 -19.142 -10.350 -10.346 -10.260
-10.258 -10.244  -1.154  -1.147  -1.105  -1.057  -1.053  -0.892
 -0.836  -0.719  -0.630  -0.612  -0.596  -0.563  -0.543  -0.540
 -0.537  -0.533  -0.507  -0.500  -0.484  -0.476  -0.462  -0.455
 -0.405  -0.365  -0.356  -0.350  -0.346  -0.344  -0.338  -0.335

          Ground-State Mulliken Net Atomic Charges

     Atom                 Charge (a.u.)
  ----------------------------------------
      1 C                    -0.501883
      2 C                     0.514285
      3 H                     0.186015
      4 H                     0.235606
      5 H                     0.036493
      6 C                    -0.807205
      7 C                     0.118691
      8 H                     0.241213
      9 H                     0.239256
     10 H                     0.317658
     11 H                     0.323955
     12 O                    -0.795223
     13 O                    -0.679282
     14 O                    -0.692020
     15 H                     0.359096
     16 C                     0.328642
     17 O                    -0.709481
     18 O                    -0.715816
  ----------------------------------------
  Sum of atomic charges =    -2.000000

                    Cartesian Multipole Moments
 -----------------------------------------------------------------
    Charge (ESU x 10^10)
                -9.6064
    Dipole Moment (Debye)
         X       4.0315      Y       6.7628      Z      -0.0412
       Tot       7.8734
    Quadrupole Moments (Debye-Ang)
        XX     -73.0008     XY       3.9832     YY    -131.0964
        XZ       8.4691     YZ     -16.1290     ZZ     -83.7521

             Standard Nuclear Orientation (Angstroms)
    I     Atom           X                Y                Z
 ----------------------------------------------------------------
    1      C      -2.5985751481    -0.2802614065    -0.5691083054
    2      C      -1.8438262691     0.5904719730     0.4306506328
    3      H      -3.1600616071    -1.0692754136    -0.0659475400
    4      H      -3.2722605941     0.3295485689    -1.1761551439
    5      H      -1.8708508083    -0.7430200473    -1.2445544593
    6      C       1.8742925828    -0.2179715888    -1.0340355699
    7      C       1.3159236921    -1.1255862853    -0.2413023520
    8      H       1.7937462980    -0.3019689508    -2.1144194862
    9      H       2.4204461754     0.6306794016    -0.6310804823
   10      H       1.3930505596    -1.0382758514     0.8407489626
   11      H       0.5385238806     2.2302382662     2.3794398379
   12      O      -1.3865390352     1.6892572786    -0.0093452909
   13      O      -1.6991818917     0.1723710764     1.6029133066
   14      O       0.5267281512     2.7342003959     1.5585916363
   15      H      -0.2061527394     2.3261567691     1.0233659991
   16      C       0.5362334187    -2.3254113289    -0.7482514667
   17      O       0.0684317686    -3.0869189234     0.1398996359
   18      O       0.4105964040    -2.4741530322    -1.9896542694
 ----------------------------------------------------------------

 Frequency:        17.24                  32.63                  38.15
 Force Cnst:      0.0013                 0.0034                 0.0057
 Red. Mass:       7.3369                 5.4105                 6.6448
 IR Intens:        1.340                 11.639                  5.841
 Frequency:        45.51                  62.32                  67.87
 Force Cnst:      0.0066                 0.0046                 0.0233
 Red. Mass:       5.4188                 1.9980                 8.6007
 IR Intens:        2.056                  2.238                  3.690
 Frequency:        81.61                  85.82                  91.31
 Force Cnst:      0.0238                 0.0144                 0.0090
 Red. Mass:       6.0746                 3.3096                 1.8408
 IR Intens:        7.097                  6.979                 21.073
 Frequency:       101.79                 140.15                 215.24
 Force Cnst:      0.0156                 0.0127                 0.1496
 Red. Mass:       2.5534                 1.1014                 5.4814
 IR Intens:        2.214                171.444                 34.430
 Frequency:       293.12                 464.11                 474.62
 Force Cnst:      0.1878                 0.4009                 0.1446
 Red. Mass:       3.7092                 3.1588                 1.0898
 IR Intens:        1.278                  6.081                 89.732
 Frequency:       523.20                 526.21                 620.06
 Force Cnst:      0.2494                 0.8653                 0.5592
 Red. Mass:       1.5461                 5.3036                 2.4688
 IR Intens:        0.140                 11.662                 11.021
 Frequency:       649.18                 657.58                 795.73
 Force Cnst:      0.9934                 1.2183                 0.3902
 Red. Mass:       4.0007                 4.7821                 1.0460
 IR Intens:       30.859                 80.409                152.146
 Frequency:       867.21                 884.11                 930.33
 Force Cnst:      1.8657                 1.9751                 3.0896
 Red. Mass:       4.2106                 4.2888                 6.0587
 IR Intens:       48.751                 49.311                 23.160
 Frequency:      1008.33                1026.05                1045.39
 Force Cnst:      0.7973                 0.9118                 0.7326
 Red. Mass:       1.3309                 1.4700                 1.1378
 IR Intens:       69.094                 24.411                 22.687
 Frequency:      1062.28                1063.53                1293.62
 Force Cnst:      1.2811                 1.0531                 1.3315
 Red. Mass:       1.9269                 1.5802                 1.3504
 IR Intens:       12.086                 15.009                 23.983
 Frequency:      1361.90                1385.50                1439.65
 Force Cnst:      1.5365                 2.2695                 4.2052
 Red. Mass:       1.4060                 2.0067                 3.4437
 IR Intens:       27.738                146.835                395.886
 Frequency:      1446.67                1452.77                1470.37
 Force Cnst:      2.7237                 1.4245                 1.4591
 Red. Mass:       2.2089                 1.1455                 1.1455
 IR Intens:      339.465                158.821                 51.327
 Frequency:      1583.70                1596.20                1650.74
 Force Cnst:      8.2600                17.2623                 1.8140
 Red. Mass:       5.5897                11.4994                 1.1299
 IR Intens:      827.658               1270.263                266.828
 Frequency:      1722.50                3059.30                3131.58
 Force Cnst:      9.1783                 5.7166                 6.3533
 Red. Mass:       5.2504                 1.0367                 1.0996
 IR Intens:       33.420                 13.944                 20.483
 Frequency:      3150.58                3155.28                3175.88
 Force Cnst:      6.1913                 6.4821                 6.5011
 Red. Mass:       1.0586                 1.1051                 1.0940
 IR Intens:       17.174                 52.581                 20.716
 Frequency:      3197.00                3241.26                3872.44
 Force Cnst:      6.4488                 6.9102                 9.4137
 Red. Mass:       1.0709                 1.1164                 1.0655
 IR Intens:     1708.782                 10.680                 67.733

 STANDARD THERMODYNAMIC QUANTITIES AT   298.15 K  AND     1.00 ATM

   This Molecule has  0 Imaginary Frequencies
   Zero point vibrational energy:       80.424 kcal/mol

   Atom    1 Element C  Has Mass   12.00000
   Atom    2 Element C  Has Mass   12.00000
   Atom    3 Element H  Has Mass    1.00783
   Atom    4 Element H  Has Mass    1.00783
   Atom    5 Element H  Has Mass    1.00783
   Atom    6 Element C  Has Mass   12.00000
   Atom    7 Element C  Has Mass   12.00000
   Atom    8 Element H  Has Mass    1.00783
   Atom    9 Element H  Has Mass    1.00783
   Atom   10 Element H  Has Mass    1.00783
   Atom   11 Element H  Has Mass    1.00783
   Atom   12 Element O  Has Mass   15.99491
   Atom   13 Element O  Has Mass   15.99491
   Atom   14 Element O  Has Mass   15.99491
   Atom   15 Element H  Has Mass    1.00783
   Atom   16 Element C  Has Mass   12.00000
   Atom   17 Element O  Has Mass   15.99491
   Atom   18 Element O  Has Mass   15.99491
   Molecular Mass:   148.037190 amu
   Principal axes and moments of inertia in amu*Bohr^2:
                             1           2           3
    Eigenvalues --     1278.59678  2562.20961  3132.96783
          X              -0.32656     0.93748     0.12039
          Y               0.85327     0.34720    -0.38909
          Z               0.40656     0.02433     0.91330
   Rotational Symmetry Number is   1
   The Molecule is an Asymmetric Top
   Translational Enthalpy:        0.889 kcal/mol
   Rotational Enthalpy:           0.889 kcal/mol
   Vibrational Enthalpy:         87.654 kcal/mol
   gas constant (RT):             0.592 kcal/mol
   Translational Entropy:        40.887  cal/mol.K
   Rotational Entropy:           30.707  cal/mol.K
   Vibrational Entropy:          57.476  cal/mol.K

   Total Enthalpy:               90.024 kcal/mol
   Total Entropy:               129.070  cal/mol.K

 Total job time:  34616.20s(wall), 473383.39s(cpu)
        *  Thank you very much for using Q-Chem.  Have a nice day.  *
