 Q-Chem 5.0, Q-Chem, Inc., Pleasanton, CA (2017)
 Q-Chem 5.0.2 for Intel X86 EM64T Linux

User input:
--------------------------------------------------------------
$molecule
-2 1
C        0.0825282881    1.1749647692   -0.9170757067
C        0.6367491073    1.7550983211   -2.2283796483
O        0.4920663464    2.9983385665   -2.3886191575
O        1.1671115828    0.9726811663   -3.0577472409
C        0.5671674615   -0.2288089381   -0.5695283086
H       -1.0100050581    1.1916575086   -1.0164963877
H        0.3242647085    1.8769638795   -0.1131521009
C        0.0589997397   -0.7859303602    0.7593893989
H        1.6619021356   -0.2433887734   -0.5238621297
H        0.2699318059   -0.9296570078   -1.3571967970
C       -1.4651175141   -0.9097493912    0.8186157633
H       -1.9594534143    0.0513322617    0.6509905571
H       -1.7524863699   -1.2849462260    1.8051247213
H       -1.8115732360   -1.6196978448    0.0602632774
O        0.6699212250   -1.9730272475    1.0925338013
O        0.4777951680    0.1804129676    1.8018615107
O        0.7519401800   -0.6301229635    2.9636590850
H        0.8382578438   -1.5961206877    2.2196193622
$end

$rem
jobtype               freq
method                wb97x-v
basis                 def2-tzvpd
symmetry              off
sym_ignore            true
incdft                false
incfock               0
!scf_algorithm        diis_gdm
scf_convergence       8
thresh                14
!purecart             112
max_scf_cycles        1000
geom_opt_max_cycles   500
geom_opt_dmax         100
geom_opt_tol_gradient 10
solvent_method        pcm
ideriv                1
rpath_tol_displacement 1000
rpath_max_cycles      100
rpath_direction       1
!scf_guess            read
scf_guess             read
$end

$pcm
theory              cosmo
method              iswig
Radii               bondi
vdwScale            1.20
hpoints             110
heavypoints         110
$end

$solvent
dielectric 78.400000
$end

--------------------------------------------------------------

   17    -571.7240949118      3.24E-09 Convergence criterion met
 Total energy in the final basis set = -571.72409491
   14    -571.7240939596      7.45E-09 Convergence criterion met
 Total energy in the final basis set = -571.72409396
   14    -571.7240939622      4.94E-09 Convergence criterion met
 Total energy in the final basis set = -571.72409396
   14    -571.7240939592      6.63E-09 Convergence criterion met
 Total energy in the final basis set = -571.72409396
   14    -571.7240939547      5.07E-09 Convergence criterion met
 Total energy in the final basis set = -571.72409395
   14    -571.7240940066      6.08E-09 Convergence criterion met
 Total energy in the final basis set = -571.72409401
   14    -571.7240940016      5.08E-09 Convergence criterion met
 Total energy in the final basis set = -571.72409400
   14    -571.7240942805      6.73E-09 Convergence criterion met
 Total energy in the final basis set = -571.72409440
   14    -571.7240944058      6.47E-09 Convergence criterion met
 Total energy in the final basis set = -571.72409441
   14    -571.7240948139      6.13E-09 Convergence criterion met
 Total energy in the final basis set = -571.72409481
   15    -571.7240947997      5.60E-09 Convergence criterion met
 Total energy in the final basis set = -571.72409480
   16    -571.7240947662      5.57E-09 Convergence criterion met
 Total energy in the final basis set = -571.72409477
   14    -571.7240947699      5.48E-09 Convergence criterion met
 Total energy in the final basis set = -571.72409477
   14    -571.7240948584      7.98E-09 Convergence criterion met
 Total energy in the final basis set = -571.72409486
   14    -571.7240948566      5.48E-09 Convergence criterion met
 Total energy in the final basis set = -571.72409486

                    Orbital Energies (a.u.)
 --------------------------------------------------------------

 Alpha MOs
 -- Occupied --
-19.217 -19.181 -19.143 -19.139 -19.136 -10.339 -10.334 -10.245
-10.242 -10.236  -1.200  -1.142  -1.070  -1.047  -0.950  -0.879
 -0.827  -0.760  -0.642  -0.610  -0.600  -0.562  -0.556  -0.535
 -0.515  -0.509  -0.503  -0.489  -0.463  -0.448  -0.444  -0.433
 -0.419  -0.394  -0.352  -0.346  -0.342  -0.331  -0.324  -0.293

          Ground-State Mulliken Net Atomic Charges

     Atom                 Charge (a.u.)
  ----------------------------------------
      1 C                    -0.196528
      2 C                    -0.017500
      3 O                    -0.714620
      4 O                    -0.693513
      5 C                    -0.265457
      6 H                     0.203835
      7 H                     0.197002
      8 C                     0.947467
      9 H                     0.184097
     10 H                     0.207037
     11 C                    -1.331886
     12 H                     0.270267
     13 H                     0.239608
     14 H                     0.243543
     15 O                    -0.751509
     16 O                    -0.243576
     17 O                    -0.671075
     18 H                     0.392808
  ----------------------------------------
  Sum of atomic charges =    -2.000000

                    Cartesian Multipole Moments
 -----------------------------------------------------------------
    Charge (ESU x 10^10)
                -9.6064
    Dipole Moment (Debye)
         X      -8.6037      Y      -5.6982      Z       3.8332
       Tot      11.0085
    Quadrupole Moments (Debye-Ang)
        XX     -72.6671     XY      -3.0018     YY    -106.5788
        XZ       7.4503     YZ      34.0587     ZZ    -136.0487

             Standard Nuclear Orientation (Angstroms)
    I     Atom           X                Y                Z
 ----------------------------------------------------------------
    1      C       0.0825282881     1.1749647692    -0.9170757067
    2      C       0.6367491073     1.7550983211    -2.2283796483
    3      O       0.4920663464     2.9983385665    -2.3886191575
    4      O       1.1671115828     0.9726811663    -3.0577472409
    5      C       0.5671674615    -0.2288089381    -0.5695283086
    6      H      -1.0100050581     1.1916575086    -1.0164963877
    7      H       0.3242647085     1.8769638795    -0.1131521009
    8      C       0.0589997397    -0.7859303602     0.7593893989
    9      H       1.6619021356    -0.2433887734    -0.5238621297
   10      H       0.2699318059    -0.9296570078    -1.3571967970
   11      C      -1.4651175141    -0.9097493912     0.8186157633
   12      H      -1.9594534143     0.0513322617     0.6509905571
   13      H      -1.7524863699    -1.2849462260     1.8051247213
   14      H      -1.8115732360    -1.6196978448     0.0602632774
   15      O       0.6699212250    -1.9730272475     1.0925338013
   16      O       0.4777951680     0.1804129676     1.8018615107
   17      O       0.7519401800    -0.6301229635     2.9636590850
   18      H       0.8382578438    -1.5961206877     2.2196193622
 ----------------------------------------------------------------

 Frequency:      -978.71                  34.10                  59.73
 Force Cnst:      0.6341                 0.0069                 0.0101
 Red. Mass:       1.1236                10.1226                 4.8130
 IR Intens:     2580.914                  1.424                 24.152
 Frequency:       101.57                 118.68                 149.62
 Force Cnst:      0.0139                 0.0615                 0.0633
 Red. Mass:       2.2948                 7.4127                 4.7956
 IR Intens:        4.181                  2.696                 11.194
 Frequency:       225.37                 256.97                 329.59
 Force Cnst:      0.1276                 0.0464                 0.3524
 Red. Mass:       4.2641                 1.1938                 5.5054
 IR Intens:        3.771                  1.739                  0.493
 Frequency:       344.86                 418.86                 495.88
 Force Cnst:      0.1701                 0.4429                 0.5344
 Red. Mass:       2.4269                 4.2843                 3.6883
 IR Intens:        8.118                  2.935                 18.849
 Frequency:       540.92                 605.00                 646.48
 Force Cnst:      0.6324                 0.4632                 1.2494
 Red. Mass:       3.6682                 2.1476                 5.0739
 IR Intens:       22.403                 17.046                 54.847
 Frequency:       707.36                 742.34                 786.22
 Force Cnst:      1.4673                 3.6225                 0.6336
 Red. Mass:       4.9772                11.1571                 1.7397
 IR Intens:       22.908                  6.113                 15.985
 Frequency:       810.02                 900.46                 934.00
 Force Cnst:      2.0092                 1.4180                 1.7565
 Red. Mass:       5.1973                 2.9682                 3.4174
 IR Intens:      106.381                165.483                 35.611
 Frequency:       960.63                 993.44                1021.71
 Force Cnst:      0.9323                 4.3327                 1.1313
 Red. Mass:       1.7148                 7.4511                 1.8394
 IR Intens:        2.582                 29.149                 20.948
 Frequency:      1091.12                1114.65                1122.95
 Force Cnst:      1.9070                 1.3254                 0.9009
 Red. Mass:       2.7186                 1.8107                 1.2126
 IR Intens:       20.495                 60.979                126.101
 Frequency:      1196.66                1232.62                1261.60
 Force Cnst:      1.6093                 1.4428                 1.8462
 Red. Mass:       1.9075                 1.6117                 1.9687
 IR Intens:      254.813                114.543                 75.770
 Frequency:      1311.09                1317.68                1388.94
 Force Cnst:      2.3244                 1.2015                 1.8248
 Red. Mass:       2.2951                 1.1745                 1.6055
 IR Intens:       55.498                 11.662                114.976
 Frequency:      1395.38                1437.86                1455.19
 Force Cnst:      2.1735                 4.3256                 1.6164
 Red. Mass:       1.8946                 3.5511                 1.2956
 IR Intens:      145.551                304.225                 31.776
 Frequency:      1468.43                1476.18                1477.24
 Force Cnst:      1.3745                 1.3677                 1.4244
 Red. Mass:       1.0819                 1.0652                 1.1079
 IR Intens:       14.821                  1.948                  4.927
 Frequency:      1582.23                2021.60                3049.10
 Force Cnst:     14.9335                 2.4822                 5.6980
 Red. Mass:      10.1244                 1.0309                 1.0402
 IR Intens:     1248.816                 80.586                 23.389
 Frequency:      3057.38                3059.87                3096.23
 Force Cnst:      5.8349                 5.8531                 6.2068
 Red. Mass:       1.0595                 1.0610                 1.0989
 IR Intens:       10.129                 75.334                 10.758
 Frequency:      3115.17                3124.59                3133.37
 Force Cnst:      6.2993                 6.3386                 6.3789
 Red. Mass:       1.1017                 1.1019                 1.1027
 IR Intens:       77.203                 56.566                 54.263

 STANDARD THERMODYNAMIC QUANTITIES AT   298.15 K  AND     1.00 ATM

   This Molecule has  1 Imaginary Frequencies
   Zero point vibrational energy:       81.730 kcal/mol

   Atom    1 Element C  Has Mass   12.00000
   Atom    2 Element C  Has Mass   12.00000
   Atom    3 Element O  Has Mass   15.99491
   Atom    4 Element O  Has Mass   15.99491
   Atom    5 Element C  Has Mass   12.00000
   Atom    6 Element H  Has Mass    1.00783
   Atom    7 Element H  Has Mass    1.00783
   Atom    8 Element C  Has Mass   12.00000
   Atom    9 Element H  Has Mass    1.00783
   Atom   10 Element H  Has Mass    1.00783
   Atom   11 Element C  Has Mass   12.00000
   Atom   12 Element H  Has Mass    1.00783
   Atom   13 Element H  Has Mass    1.00783
   Atom   14 Element H  Has Mass    1.00783
   Atom   15 Element O  Has Mass   15.99491
   Atom   16 Element O  Has Mass   15.99491
   Atom   17 Element O  Has Mass   15.99491
   Atom   18 Element H  Has Mass    1.00783
   Molecular Mass:   148.037190 amu
   Principal axes and moments of inertia in amu*Bohr^2:
                             1           2           3
    Eigenvalues --      633.23355  2951.37127  3071.55985
          X              -0.08505     0.04243     0.99547
          Y              -0.55391     0.82846    -0.08263
          Z               0.82822     0.55843     0.04696
   Rotational Symmetry Number is   1
   The Molecule is an Asymmetric Top
   Translational Enthalpy:        0.889 kcal/mol
   Rotational Enthalpy:           0.889 kcal/mol
   Vibrational Enthalpy:         86.300 kcal/mol
   gas constant (RT):             0.592 kcal/mol
   Translational Entropy:        40.887  cal/mol.K
   Rotational Entropy:           30.130  cal/mol.K
   Vibrational Entropy:          30.244  cal/mol.K

   Total Enthalpy:               88.670 kcal/mol
   Total Entropy:               101.261  cal/mol.K

 Total job time:  37261.80s(wall), 498562.69s(cpu)
        *  Thank you very much for using Q-Chem.  Have a nice day.  *
