 Q-Chem 5.0, Q-Chem, Inc., Pleasanton, CA (2017)
 Q-Chem 5.0.2 for Intel X86 EM64T Linux

User input:
--------------------------------------------------------------
$molecule
-2 1
C       -1.3612995316   -1.0336185602   -1.2784772980
C       -2.1946303943   -0.6922027889   -2.5245976755
O       -3.0267720523   -1.5621138694   -2.8903709511
O       -1.9932297883    0.4170327282   -3.0801440153
C       -0.3084341575    0.0061379547   -0.9451634482
H       -0.8855789707   -2.0066085505   -1.4407040866
H       -2.0506574598   -1.1538961420   -0.4362295340
O        0.4761544798   -0.4095325171    0.2008371259
H       -0.7506556127    0.9806339008   -0.7377606000
H        0.4188804150    0.1079893365   -1.7508997392
C       -0.0178886289   -0.1455159611    1.4137601894
C        0.8881763092   -0.6480236055    2.5016909772
H        0.8416245397   -1.7408949429    2.5210828771
H        0.5648350828   -0.2535974514    3.4639247253
H        1.9216272300   -0.3604951698    2.2976541670
O       -1.0755458725    0.4195637085    1.5987895208
O        1.8085003477    3.0277160649    0.8338390714
O        3.0024608304    2.2373284520    0.4929259179
H        3.0620878336    1.6216939555    1.2321283780
$end

$rem
jobtype               freq
method                wb97x-v
basis                 def2-tzvpd
symmetry              off
sym_ignore            true
incdft                false
incfock               0
!scf_algorithm        diis_gdm
scf_convergence       8
thresh                14
!purecart             112
max_scf_cycles        1000
geom_opt_max_cycles   500
geom_opt_dmax         100
geom_opt_tol_gradient 10
solvent_method        pcm
ideriv                1
rpath_tol_displacement 1000
rpath_max_cycles      100
rpath_direction       1
!scf_guess            read
scf_guess             read
$end

$pcm
theory              cosmo
method              iswig
Radii               bondi
vdwScale            1.20
hpoints             110
heavypoints         110
$end

$solvent
dielectric 78.400000
$end

--------------------------------------------------------------

   17    -646.9552012963      7.73E-09 Convergence criterion met
 Total energy in the final basis set = -646.95520130
   15    -646.9552003458      7.08E-09 Convergence criterion met
 Total energy in the final basis set = -646.95520035
   15    -646.9552003691      9.54E-09 Convergence criterion met
 Total energy in the final basis set = -646.95520037
   16    -646.9552003130      3.98E-09 Convergence criterion met
 Total energy in the final basis set = -646.95520031
   16    -646.9552002637      2.73E-09 Convergence criterion met
 Total energy in the final basis set = -646.95520026
   16    -646.9552004027      3.97E-09 Convergence criterion met
 Total energy in the final basis set = -646.95520040
   16    -646.9552003732      2.71E-09 Convergence criterion met
 Total energy in the final basis set = -646.95520037
   16    -646.9552004799      4.67E-09 Convergence criterion met
 Total energy in the final basis set = -646.95520067
   15    -646.9552006098      9.04E-09 Convergence criterion met
 Total energy in the final basis set = -646.95520061
   16    -646.9552011974      7.98E-09 Convergence criterion met
 Total energy in the final basis set = -646.95520120
   17    -646.9552012627      2.01E-09 Convergence criterion met
 Total energy in the final basis set = -646.95520126
   17    -646.9552008832      1.57E-09 Convergence criterion met
 Total energy in the final basis set = -646.95520088
   15    -646.9552009213      8.16E-09 Convergence criterion met
 Total energy in the final basis set = -646.95520092
   17    -646.9552007274      2.61E-09 Convergence criterion met
 Total energy in the final basis set = -646.95520073
   16    -646.9552007225      2.49E-09 Convergence criterion met
 Total energy in the final basis set = -646.95520072

                    Orbital Energies (a.u.)
 --------------------------------------------------------------

 Alpha MOs
 -- Occupied --
-19.254 -19.201 -19.199 -19.144 -19.141 -19.135 -10.402 -10.346
-10.313 -10.268 -10.255  -1.238  -1.148  -1.145  -1.133  -1.053
 -0.912  -0.878  -0.864  -0.778  -0.671  -0.625  -0.617  -0.596
 -0.582  -0.557  -0.549  -0.539  -0.524  -0.515  -0.497  -0.492
 -0.469  -0.465  -0.455  -0.437  -0.434  -0.411  -0.387  -0.350
 -0.339  -0.335  -0.301  -0.273

          Ground-State Mulliken Net Atomic Charges

     Atom                 Charge (a.u.)
  ----------------------------------------
      1 C                    -0.128057
      2 C                     0.065408
      3 O                    -0.703776
      4 O                    -0.688360
      5 C                    -0.130297
      6 H                     0.268497
      7 H                     0.212822
      8 O                    -0.269549
      9 H                     0.213989
     10 H                     0.203938
     11 C                     0.581852
     12 C                    -0.798811
     13 H                     0.244660
     14 H                     0.241558
     15 H                     0.197194
     16 O                    -0.523650
     17 O                    -0.840746
     18 O                    -0.440669
     19 H                     0.293999
  ----------------------------------------
  Sum of atomic charges =    -2.000000

                    Cartesian Multipole Moments
 -----------------------------------------------------------------
    Charge (ESU x 10^10)
                -9.6064
    Dipole Moment (Debye)
         X       5.4023      Y     -13.9047      Z      11.9625
       Tot      19.1214
    Quadrupole Moments (Debye-Ang)
        XX    -128.8562     XY     -40.0422     YY    -123.4549
        XZ     -38.4549     YZ     -20.1670     ZZ    -117.5557

             Standard Nuclear Orientation (Angstroms)
    I     Atom           X                Y                Z
 ----------------------------------------------------------------
    1      C      -1.3612995316    -1.0336185602    -1.2784772980
    2      C      -2.1946303943    -0.6922027889    -2.5245976755
    3      O      -3.0267720523    -1.5621138694    -2.8903709511
    4      O      -1.9932297883     0.4170327282    -3.0801440153
    5      C      -0.3084341575     0.0061379547    -0.9451634482
    6      H      -0.8855789707    -2.0066085505    -1.4407040866
    7      H      -2.0506574598    -1.1538961420    -0.4362295340
    8      O       0.4761544798    -0.4095325171     0.2008371259
    9      H      -0.7506556127     0.9806339008    -0.7377606000
   10      H       0.4188804150     0.1079893365    -1.7508997392
   11      C      -0.0178886289    -0.1455159611     1.4137601894
   12      C       0.8881763092    -0.6480236055     2.5016909772
   13      H       0.8416245397    -1.7408949429     2.5210828771
   14      H       0.5648350828    -0.2535974514     3.4639247253
   15      H       1.9216272300    -0.3604951698     2.2976541670
   16      O      -1.0755458725     0.4195637085     1.5987895208
   17      O       1.8085003477     3.0277160649     0.8338390714
   18      O       3.0024608304     2.2373284520     0.4929259179
   19      H       3.0620878336     1.6216939555     1.2321283780
 ----------------------------------------------------------------

 Frequency:       -26.56                  31.86                  37.33
 Force Cnst:      0.0008                 0.0058                 0.0023
 Red. Mass:       1.9394                 9.7442                 2.7593
 IR Intens:       57.533                  8.117                 45.318
 Frequency:        47.97                  60.79                  66.44
 Force Cnst:      0.0062                 0.0158                 0.0127
 Red. Mass:       4.5627                 7.2442                 4.9008
 IR Intens:       14.672                 17.737                 17.937
 Frequency:        69.49                  87.09                  98.14
 Force Cnst:      0.0101                 0.0144                 0.0328
 Red. Mass:       3.5595                 3.2246                 5.7724
 IR Intens:       25.285                  1.360                  8.270
 Frequency:       106.27                 154.16                 205.96
 Force Cnst:      0.0210                 0.0173                 0.1739
 Red. Mass:       3.1488                 1.2369                 6.9579
 IR Intens:        8.912                 74.256                  9.522
 Frequency:       300.81                 321.26                 463.55
 Force Cnst:      0.1597                 0.3128                 0.5332
 Red. Mass:       2.9950                 5.1441                 4.2119
 IR Intens:       20.617                  6.318                 18.933
 Frequency:       492.95                 593.36                 617.90
 Force Cnst:      0.7294                 0.3984                 0.6016
 Red. Mass:       5.0944                 1.9206                 2.6742
 IR Intens:       27.401                  3.784                 15.217
 Frequency:       648.58                 713.42                 798.80
 Force Cnst:      1.1602                 1.6964                 0.5891
 Red. Mass:       4.6809                 5.6569                 1.5670
 IR Intens:        1.385                 55.535                 24.806
 Frequency:       888.17                 919.01                 936.96
 Force Cnst:      1.6667                 7.7750                 2.4342
 Red. Mass:       3.5860                15.6247                 4.7061
 IR Intens:       11.203                 16.393                 25.396
 Frequency:       996.24                1066.36                1068.15
 Force Cnst:      1.3702                 1.3084                 1.9128
 Red. Mass:       2.3432                 1.9529                 2.8455
 IR Intens:       15.718                 40.163                131.729
 Frequency:      1092.07                1107.66                1241.12
 Force Cnst:      1.4511                 2.0703                 1.0006
 Red. Mass:       2.0651                 2.8641                 1.1025
 IR Intens:       12.502                 20.891                 52.774
 Frequency:      1248.18                1275.05                1298.38
 Force Cnst:      1.2547                 1.7812                 1.6880
 Red. Mass:       1.3669                 1.8595                 1.6995
 IR Intens:       23.190                338.323                185.637
 Frequency:      1327.96                1397.72                1419.21
 Force Cnst:      1.2730                 1.5196                 2.3575
 Red. Mass:       1.2253                 1.3202                 1.9866
 IR Intens:      105.925                 45.657                287.078
 Frequency:      1433.49                1454.13                1458.12
 Force Cnst:      4.0479                 1.3214                 1.5330
 Red. Mass:       3.3434                 1.0607                 1.2238
 IR Intens:      195.291                 27.809                 17.508
 Frequency:      1461.09                1485.27                1595.35
 Force Cnst:      1.3289                 1.4624                15.8695
 Red. Mass:       1.0565                 1.1251                10.5828
 IR Intens:       18.067                 30.115               1281.091
 Frequency:      1764.40                3071.03                3077.67
 Force Cnst:     19.6786                 5.8969                 5.7899
 Red. Mass:      10.7288                 1.0612                 1.0375
 IR Intens:      573.592                 20.858                  0.775
 Frequency:      3113.37                3116.33                3151.59
 Force Cnst:      6.2464                 6.1022                 6.4355
 Red. Mass:       1.0938                 1.0665                 1.0997
 IR Intens:       13.251                 37.038                  4.697
 Frequency:      3174.25                3187.51                3823.68
 Force Cnst:      6.5898                 6.6165                 9.2032
 Red. Mass:       1.1100                 1.1053                 1.0684
 IR Intens:       20.516                  8.719                 32.770

 STANDARD THERMODYNAMIC QUANTITIES AT   298.15 K  AND     1.00 ATM

   This Molecule has  1 Imaginary Frequencies
   Zero point vibrational energy:       85.153 kcal/mol

   Atom    1 Element C  Has Mass   12.00000
   Atom    2 Element C  Has Mass   12.00000
   Atom    3 Element O  Has Mass   15.99491
   Atom    4 Element O  Has Mass   15.99491
   Atom    5 Element C  Has Mass   12.00000
   Atom    6 Element H  Has Mass    1.00783
   Atom    7 Element H  Has Mass    1.00783
   Atom    8 Element O  Has Mass   15.99491
   Atom    9 Element H  Has Mass    1.00783
   Atom   10 Element H  Has Mass    1.00783
   Atom   11 Element C  Has Mass   12.00000
   Atom   12 Element C  Has Mass   12.00000
   Atom   13 Element H  Has Mass    1.00783
   Atom   14 Element H  Has Mass    1.00783
   Atom   15 Element H  Has Mass    1.00783
   Atom   16 Element O  Has Mass   15.99491
   Atom   17 Element O  Has Mass   15.99491
   Atom   18 Element O  Has Mass   15.99491
   Atom   19 Element H  Has Mass    1.00783
   Molecular Mass:   164.032100 amu
   Principal axes and moments of inertia in amu*Bohr^2:
                             1           2           3
    Eigenvalues --     1230.66997  3990.26433  4733.37760
          X               0.67141    -0.27882     0.68664
          Y               0.38291    -0.66275    -0.64354
          Z               0.63450     0.69500    -0.33821
   Rotational Symmetry Number is   1
   The Molecule is an Asymmetric Top
   Translational Enthalpy:        0.889 kcal/mol
   Rotational Enthalpy:           0.889 kcal/mol
   Vibrational Enthalpy:         91.886 kcal/mol
   gas constant (RT):             0.592 kcal/mol
   Translational Entropy:        41.193  cal/mol.K
   Rotational Entropy:           31.519  cal/mol.K
   Vibrational Entropy:          51.038  cal/mol.K

   Total Enthalpy:               94.256 kcal/mol
   Total Entropy:               123.750  cal/mol.K

 Total job time:  46976.02s(wall), 645826.50s(cpu)
        *  Thank you very much for using Q-Chem.  Have a nice day.  *
