 Q-Chem 5.0, Q-Chem, Inc., Pleasanton, CA (2017)
 Q-Chem 5.0.2 for Intel X86 EM64T Linux

User input:
--------------------------------------------------------------
$molecule
-2 1
C       -1.1876411392   -0.7439408563   -1.6308375602
C       -1.9899356487   -0.2109067287   -2.8277903701
O       -2.4382076381   -1.0783204091   -3.6250445535
O       -2.1427276614    1.0324398838   -2.9418914211
C       -0.7564939051    0.3092384577   -0.6274479388
H       -0.3072685940   -1.2637608803   -2.0280573170
H       -1.7948228811   -1.5076592262   -1.1314773105
O       -0.0411185883   -0.3425494229    0.4120904044
H       -1.6308662868    0.8289561163   -0.2209420976
H       -0.1194478138    1.0599278185   -1.1097410149
C        0.4636737467    0.5231772144    1.4462677261
C        1.1325120936   -0.4174368219    2.4516757271
H        0.3562800705   -1.0124486542    2.9404631198
H        1.6473608391    0.1793418631    3.2093407441
H        1.8454703341   -1.0966106947    1.9774832317
O       -0.3726493992    1.3878832512    1.9254128340
O        1.5480397937    1.3641905267    0.8026141078
O        2.5455190658    0.5682068441    0.1522841637
H        3.2237562713    0.4785973476    0.8373433137
$end

$rem
jobtype               freq
method                wb97x-v
basis                 def2-tzvpd
symmetry              off
sym_ignore            true
incdft                false
incfock               0
!scf_algorithm        diis_gdm
scf_convergence       8
thresh                14
!purecart             112
max_scf_cycles        1000
geom_opt_max_cycles   500
geom_opt_dmax         100
geom_opt_tol_gradient 10
solvent_method        pcm
ideriv                1
rpath_tol_displacement 1000
rpath_max_cycles      100
rpath_direction       1
!scf_guess            read
scf_guess             read
$end

$pcm
theory              cosmo
method              iswig
Radii               bondi
vdwScale            1.20
hpoints             110
heavypoints         110
$end

$solvent
dielectric 78.400000
$end

--------------------------------------------------------------

   17    -646.9610182287      4.43E-09 Convergence criterion met
 Total energy in the final basis set = -646.96101823
   15    -646.9610172675      3.02E-09 Convergence criterion met
 Total energy in the final basis set = -646.96101727
   14    -646.9610172741      7.43E-09 Convergence criterion met
 Total energy in the final basis set = -646.96101727
   14    -646.9610172297      7.58E-09 Convergence criterion met
 Total energy in the final basis set = -646.96101723
   14    -646.9610172430      7.27E-09 Convergence criterion met
 Total energy in the final basis set = -646.96101724
   14    -646.9610173197      7.59E-09 Convergence criterion met
 Total energy in the final basis set = -646.96101732
   14    -646.9610173290      7.31E-09 Convergence criterion met
 Total energy in the final basis set = -646.96101733
   14    -646.9610175885      8.91E-09 Convergence criterion met
 Total energy in the final basis set = -646.96101753
   14    -646.9610175353      9.30E-09 Convergence criterion met
 Total energy in the final basis set = -646.96101754
   15    -646.9610177469      6.71E-09 Convergence criterion met
 Total energy in the final basis set = -646.96101775
   16    -646.9610177411      7.90E-09 Convergence criterion met
 Total energy in the final basis set = -646.96101774
   17    -646.9610181806      6.56E-10 Convergence criterion met
 Total energy in the final basis set = -646.96101818
   17    -646.9610181935      7.59E-10 Convergence criterion met
 Total energy in the final basis set = -646.96101819
   17    -646.9610177186      6.87E-10 Convergence criterion met
 Total energy in the final basis set = -646.96101772
   15    -646.9610177227      5.59E-09 Convergence criterion met
 Total energy in the final basis set = -646.96101772

                    Orbital Energies (a.u.)
 --------------------------------------------------------------

 Alpha MOs
 -- Occupied --
-19.247 -19.234 -19.187 -19.140 -19.138 -19.110 -10.370 -10.341
-10.286 -10.246 -10.235  -1.230  -1.150  -1.143  -1.062  -1.049
 -0.974  -0.878  -0.832  -0.737  -0.665  -0.633  -0.600  -0.586
 -0.559  -0.556  -0.541  -0.522  -0.522  -0.504  -0.497  -0.476
 -0.467  -0.452  -0.438  -0.416  -0.394  -0.371  -0.357  -0.344
 -0.338  -0.331  -0.323  -0.314

          Ground-State Mulliken Net Atomic Charges

     Atom                 Charge (a.u.)
  ----------------------------------------
      1 C                    -0.028290
      2 C                     0.038533
      3 O                    -0.711590
      4 O                    -0.692711
      5 C                    -0.272032
      6 H                     0.222434
      7 H                     0.237265
      8 O                    -0.290681
      9 H                     0.159241
     10 H                     0.166805
     11 C                     0.771224
     12 C                    -1.103624
     13 H                     0.235289
     14 H                     0.259885
     15 H                     0.237877
     16 O                    -0.866944
     17 O                    -0.282280
     18 O                    -0.420406
     19 H                     0.340005
  ----------------------------------------
  Sum of atomic charges =    -2.000000

                    Cartesian Multipole Moments
 -----------------------------------------------------------------
    Charge (ESU x 10^10)
                -9.6064
    Dipole Moment (Debye)
         X      12.2461      Y      -6.5011      Z      11.0732
       Tot      17.7439
    Quadrupole Moments (Debye-Ang)
        XX     -97.0553     XY      -1.4779     YY     -91.9570
        XZ     -35.2576     YZ     -12.7157     ZZ    -143.0703

             Standard Nuclear Orientation (Angstroms)
    I     Atom           X                Y                Z
 ----------------------------------------------------------------
    1      C      -1.1876411392    -0.7439408563    -1.6308375602
    2      C      -1.9899356487    -0.2109067287    -2.8277903701
    3      O      -2.4382076381    -1.0783204091    -3.6250445535
    4      O      -2.1427276614     1.0324398838    -2.9418914211
    5      C      -0.7564939051     0.3092384577    -0.6274479388
    6      H      -0.3072685940    -1.2637608803    -2.0280573170
    7      H      -1.7948228811    -1.5076592262    -1.1314773105
    8      O      -0.0411185883    -0.3425494229     0.4120904044
    9      H      -1.6308662868     0.8289561163    -0.2209420976
   10      H      -0.1194478138     1.0599278185    -1.1097410149
   11      C       0.4636737467     0.5231772144     1.4462677261
   12      C       1.1325120936    -0.4174368219     2.4516757271
   13      H       0.3562800705    -1.0124486542     2.9404631198
   14      H       1.6473608391     0.1793418631     3.2093407441
   15      H       1.8454703341    -1.0966106947     1.9774832317
   16      O      -0.3726493992     1.3878832512     1.9254128340
   17      O       1.5480397937     1.3641905267     0.8026141078
   18      O       2.5455190658     0.5682068441     0.1522841637
   19      H       3.2237562713     0.4785973476     0.8373433137
 ----------------------------------------------------------------

 Frequency:        39.64                  46.26                  53.69
 Force Cnst:      0.0035                 0.0109                 0.0048
 Red. Mass:       3.7610                 8.6144                 2.8556
 IR Intens:        1.409                  2.602                  3.263
 Frequency:       104.40                 121.60                 182.78
 Force Cnst:      0.0427                 0.0322                 0.0498
 Red. Mass:       6.6447                 3.6956                 2.5319
 IR Intens:        2.229                 20.555                 26.165
 Frequency:       224.25                 236.00                 260.99
 Force Cnst:      0.0423                 0.1017                 0.1193
 Red. Mass:       1.4260                 3.0981                 2.9730
 IR Intens:       70.041                 12.374                 58.908
 Frequency:       274.51                 290.53                 381.04
 Force Cnst:      0.0673                 0.3114                 0.3482
 Red. Mass:       1.5155                 6.2610                 4.0700
 IR Intens:       84.210                  9.140                  2.252
 Frequency:       399.98                 486.88                 509.93
 Force Cnst:      0.4546                 0.9904                 0.7672
 Red. Mass:       4.8232                 7.0912                 5.0077
 IR Intens:       11.576                 15.188                 36.349
 Frequency:       593.27                 600.06                 634.79
 Force Cnst:      0.5170                 0.6630                 1.0126
 Red. Mass:       2.4930                 3.1251                 4.2651
 IR Intens:       10.715                 45.129                  9.942
 Frequency:       681.17                 746.85                 815.86
 Force Cnst:      1.8487                 2.1544                 0.5768
 Red. Mass:       6.7625                 6.5557                 1.4709
 IR Intens:       44.453                190.515                  8.151
 Frequency:       833.42                 943.93                 965.57
 Force Cnst:      2.0759                 2.1584                 1.6230
 Red. Mass:       5.0725                 4.1115                 2.9546
 IR Intens:      269.065                  2.887                 32.570
 Frequency:       993.04                1060.83                1091.30
 Force Cnst:      3.1326                 1.5165                 1.3634
 Red. Mass:       5.3917                 2.2872                 1.9431
 IR Intens:       72.012                248.688                 13.375
 Frequency:      1106.97                1117.37                1141.29
 Force Cnst:      2.7824                 2.0993                 2.1425
 Red. Mass:       3.8538                 2.8538                 2.7918
 IR Intens:      250.336                 32.525                309.930
 Frequency:      1219.92                1284.37                1293.07
 Force Cnst:      1.0560                 1.4270                 1.1127
 Red. Mass:       1.2043                 1.4683                 1.1295
 IR Intens:        1.792                 24.583                  0.980
 Frequency:      1354.29                1364.96                1400.92
 Force Cnst:      1.7814                 1.3425                 1.9853
 Red. Mass:       1.6485                 1.2230                 1.7169
 IR Intens:      333.184                  3.613                 51.334
 Frequency:      1413.11                1437.33                1457.97
 Force Cnst:      3.1132                 5.3782                 1.5984
 Red. Mass:       2.6461                 4.4184                 1.2762
 IR Intens:      285.407                408.298                 34.069
 Frequency:      1465.47                1478.30                1516.28
 Force Cnst:      1.3460                 1.3572                 1.4894
 Red. Mass:       1.0638                 1.0541                 1.0995
 IR Intens:        6.417                  4.003                 13.455
 Frequency:      1583.46                3049.74                3054.56
 Force Cnst:     15.0347                 5.7887                 5.8337
 Red. Mass:      10.1773                 1.0563                 1.0612
 IR Intens:     1286.371                 65.601                 49.792
 Frequency:      3059.45                3081.57                3103.03
 Force Cnst:      5.7097                 6.1682                 6.2699
 Red. Mass:       1.0353                 1.1025                 1.1052
 IR Intens:       21.666                  9.791                 97.435
 Frequency:      3137.92                3141.82                3781.62
 Force Cnst:      6.3985                 6.4185                 9.0018
 Red. Mass:       1.1029                 1.1036                 1.0684
 IR Intens:       44.515                 47.220                 71.168

 STANDARD THERMODYNAMIC QUANTITIES AT   298.15 K  AND     1.00 ATM

   This Molecule has  0 Imaginary Frequencies
   Zero point vibrational energy:       86.657 kcal/mol

   Atom    1 Element C  Has Mass   12.00000
   Atom    2 Element C  Has Mass   12.00000
   Atom    3 Element O  Has Mass   15.99491
   Atom    4 Element O  Has Mass   15.99491
   Atom    5 Element C  Has Mass   12.00000
   Atom    6 Element H  Has Mass    1.00783
   Atom    7 Element H  Has Mass    1.00783
   Atom    8 Element O  Has Mass   15.99491
   Atom    9 Element H  Has Mass    1.00783
   Atom   10 Element H  Has Mass    1.00783
   Atom   11 Element C  Has Mass   12.00000
   Atom   12 Element C  Has Mass   12.00000
   Atom   13 Element H  Has Mass    1.00783
   Atom   14 Element H  Has Mass    1.00783
   Atom   15 Element H  Has Mass    1.00783
   Atom   16 Element O  Has Mass   15.99491
   Atom   17 Element O  Has Mass   15.99491
   Atom   18 Element O  Has Mass   15.99491
   Atom   19 Element H  Has Mass    1.00783
   Molecular Mass:   164.032100 amu
   Principal axes and moments of inertia in amu*Bohr^2:
                             1           2           3
    Eigenvalues --      787.06690  3809.50494  3901.78872
          X               0.58789     0.80442    -0.08538
          Y               0.14792    -0.00313     0.98899
          Z               0.79530    -0.59405    -0.12083
   Rotational Symmetry Number is   1
   The Molecule is an Asymmetric Top
   Translational Enthalpy:        0.889 kcal/mol
   Rotational Enthalpy:           0.889 kcal/mol
   Vibrational Enthalpy:         92.421 kcal/mol
   gas constant (RT):             0.592 kcal/mol
   Translational Entropy:        41.193  cal/mol.K
   Rotational Entropy:           30.837  cal/mol.K
   Vibrational Entropy:          38.587  cal/mol.K

   Total Enthalpy:               94.791 kcal/mol
   Total Entropy:               110.617  cal/mol.K

 Total job time:  48467.47s(wall), 677727.53s(cpu)
        *  Thank you very much for using Q-Chem.  Have a nice day.  *
