 Q-Chem 5.0, Q-Chem, Inc., Pleasanton, CA (2017)
 Q-Chem 5.0.2 for Intel X86 EM64T Linux

User input:
--------------------------------------------------------------
$molecule
-2 1
C       -0.8938873010    0.4371620195    0.0401107246
O       -1.4335970683    0.3851767721    1.2641497202
C       -1.3010321764    1.6949931722   -0.7416109852
H       -2.3922593646    1.7429237684   -0.8078404680
H       -0.9457767999    2.5849906717   -0.2118388167
H       -0.8828835124    1.6980397954   -1.7538316478
C        0.6258862761    0.2292916764   -0.0385004575
H        0.9115768372    0.1294783931   -1.0941439117
H        1.0985398427    1.1490946599    0.3230432126
C        1.1459137621   -0.9620045984    0.7524674085
H        0.6656750193   -1.8861744884    0.4191395210
H        0.8810714142   -0.8455371200    1.8105594496
C        2.6674604721   -1.1652065873    0.7010976519
O        3.3972939986   -0.1739044334    0.4371338416
O        3.0900412327   -2.3268801743    0.9584879199
O       -1.4280027941   -0.7389673239   -0.7669952465
O       -2.7574549157   -0.9555244015   -0.2802324397
H       -2.6012405097   -0.5161147443    0.6203150601
$end

$rem
jobtype               freq
method                wb97x-v
basis                 def2-tzvpd
symmetry              off
sym_ignore            true
unrestricted          false
incdft                false
incfock               0
!scf_algorithm        diis_gdm
scf_convergence       8
thresh                14
!purecart             112
max_scf_cycles        1000
geom_opt_max_cycles   500
geom_opt_dmax         100
geom_opt_tol_gradient 10
solvent_method        pcm
ideriv                1
rpath_tol_displacement 1000
rpath_max_cycles      100
rpath_direction       1
!scf_guess            read
scf_guess             read
$end

$pcm
theory              cosmo
method              iswig
Radii               bondi
vdwScale            1.20
hpoints             110
heavypoints         110
$end

$solvent
dielectric 78.400000
$end

--------------------------------------------------------------

   17    -571.7274584617      4.07E-09 Convergence criterion met
 Total energy in the final basis set = -571.72745846
   13    -571.7274574833      8.75E-09 Convergence criterion met
 Total energy in the final basis set = -571.72745748
   13    -571.7274574840      8.47E-09 Convergence criterion met
 Total energy in the final basis set = -571.72745748
   13    -571.7274577481      8.45E-09 Convergence criterion met
 Total energy in the final basis set = -571.72745775
   13    -571.7274577386      9.22E-09 Convergence criterion met
 Total energy in the final basis set = -571.72745774
   13    -571.7274576774      8.42E-09 Convergence criterion met
 Total energy in the final basis set = -571.72745768
   13    -571.7274576109      8.70E-09 Convergence criterion met
 Total energy in the final basis set = -571.72745761
   13    -571.7274582275      8.52E-09 Convergence criterion met
 Total energy in the final basis set = -571.72745787
   13    -571.7274578200      9.19E-09 Convergence criterion met
 Total energy in the final basis set = -571.72745782
   14    -571.7274583296      5.09E-09 Convergence criterion met
 Total energy in the final basis set = -571.72745833
   16    -571.7274583417      3.87E-09 Convergence criterion met
 Total energy in the final basis set = -571.72745834
   15    -571.7274583347      8.62E-09 Convergence criterion met
 Total energy in the final basis set = -571.72745833
   15    -571.7274583623      4.70E-09 Convergence criterion met
 Total energy in the final basis set = -571.72745836
   14    -571.7274579431      6.21E-09 Convergence criterion met
 Total energy in the final basis set = -571.72745794
   14    -571.7274579843      6.63E-09 Convergence criterion met
 Total energy in the final basis set = -571.72745798

                    Orbital Energies (a.u.)
 --------------------------------------------------------------

 Alpha MOs
 -- Occupied --
-19.223 -19.220 -19.137 -19.135 -19.114 -10.337 -10.328 -10.239
-10.238 -10.232  -1.216  -1.139  -1.059  -1.044  -0.966  -0.878
 -0.829  -0.750  -0.653  -0.601  -0.596  -0.557  -0.548  -0.532
 -0.522  -0.510  -0.493  -0.488  -0.479  -0.454  -0.437  -0.427
 -0.424  -0.405  -0.345  -0.338  -0.331  -0.328  -0.325  -0.296

          Ground-State Mulliken Net Atomic Charges

     Atom                 Charge (a.u.)
  ----------------------------------------
      1 C                     1.266826
      2 O                    -0.989687
      3 C                    -1.296194
      4 H                     0.234764
      5 H                     0.257394
      6 H                     0.226774
      7 C                    -0.500475
      8 H                     0.250726
      9 H                     0.180090
     10 C                    -0.220183
     11 H                     0.200972
     12 H                     0.205501
     13 C                    -0.001445
     14 O                    -0.697025
     15 O                    -0.717225
     16 O                    -0.326590
     17 O                    -0.443797
     18 H                     0.369574
  ----------------------------------------
  Sum of atomic charges =    -2.000000

                    Cartesian Multipole Moments
 -----------------------------------------------------------------
    Charge (ESU x 10^10)
                -9.6064
    Dipole Moment (Debye)
         X      -8.5782      Y       8.0859      Z      -5.4954
       Tot      13.0065
    Quadrupole Moments (Debye-Ang)
        XX    -145.1180     XY      18.2837     YY     -87.2221
        XZ     -10.9821     YZ       3.1415     ZZ     -75.3746

             Standard Nuclear Orientation (Angstroms)
    I     Atom           X                Y                Z
 ----------------------------------------------------------------
    1      C      -0.8938873010     0.4371620195     0.0401107246
    2      O      -1.4335970683     0.3851767721     1.2641497202
    3      C      -1.3010321764     1.6949931722    -0.7416109852
    4      H      -2.3922593646     1.7429237684    -0.8078404680
    5      H      -0.9457767999     2.5849906717    -0.2118388167
    6      H      -0.8828835124     1.6980397954    -1.7538316478
    7      C       0.6258862761     0.2292916764    -0.0385004575
    8      H       0.9115768372     0.1294783931    -1.0941439117
    9      H       1.0985398427     1.1490946599     0.3230432126
   10      C       1.1459137621    -0.9620045984     0.7524674085
   11      H       0.6656750193    -1.8861744884     0.4191395210
   12      H       0.8810714142    -0.8455371200     1.8105594496
   13      C       2.6674604721    -1.1652065873     0.7010976519
   14      O       3.3972939986    -0.1739044334     0.4371338416
   15      O       3.0900412327    -2.3268801743     0.9584879199
   16      O      -1.4280027941    -0.7389673239    -0.7669952465
   17      O      -2.7574549157    -0.9555244015    -0.2802324397
   18      H      -2.6012405097    -0.5161147443     0.6203150601
 ----------------------------------------------------------------

 Frequency:        31.71                  62.33                  92.14
 Force Cnst:      0.0062                 0.0107                 0.0261
 Red. Mass:      10.4349                 4.6629                 5.2278
 IR Intens:        0.796                 16.686                  4.622
 Frequency:       127.40                 157.95                 232.88
 Force Cnst:      0.0251                 0.0763                 0.2726
 Red. Mass:       2.6272                 5.1917                 8.5312
 IR Intens:        5.428                 22.480                  5.850
 Frequency:       245.41                 296.26                 319.81
 Force Cnst:      0.0372                 0.1930                 0.2219
 Red. Mass:       1.0495                 3.7316                 3.6816
 IR Intens:        0.198                 39.509                  4.983
 Frequency:       388.62                 429.49                 484.84
 Force Cnst:      0.3702                 0.3429                 0.5482
 Red. Mass:       4.1608                 3.1553                 3.9580
 IR Intens:       41.368                 10.015                 19.554
 Frequency:       556.68                 607.91                 635.14
 Force Cnst:      0.8143                 0.4900                 1.0367
 Red. Mass:       4.4598                 2.2502                 4.3620
 IR Intens:       33.645                 37.804                 66.377
 Frequency:       672.80                 718.54                 798.01
 Force Cnst:      1.4700                 1.2986                 0.6350
 Red. Mass:       5.5117                 4.2688                 1.6924
 IR Intens:      125.864                 20.253                 31.491
 Frequency:       812.46                 884.32                 930.87
 Force Cnst:      0.4362                 1.2916                 1.8036
 Red. Mass:       1.1215                 2.8032                 3.5326
 IR Intens:      135.164                 39.117                 10.703
 Frequency:       970.60                1005.40                1020.26
 Force Cnst:      1.2360                 1.0329                 4.7720
 Red. Mass:       2.2269                 1.7344                 7.7809
 IR Intens:       51.749                  4.811                 12.378
 Frequency:      1086.82                1099.80                1162.60
 Force Cnst:      1.5687                 1.7388                 1.7717
 Red. Mass:       2.2541                 2.4399                 2.2247
 IR Intens:       58.220                 25.710                109.962
 Frequency:      1194.33                1269.19                1301.69
 Force Cnst:      1.1848                 1.5262                 2.5789
 Red. Mass:       1.4097                 1.6080                 2.5833
 IR Intens:       36.863                  1.557                255.433
 Frequency:      1315.18                1378.21                1391.99
 Force Cnst:      1.4063                 1.5125                 2.3265
 Red. Mass:       1.3800                 1.3515                 2.0379
 IR Intens:      111.423                 25.168                129.880
 Frequency:      1437.00                1455.43                1467.07
 Force Cnst:      6.9734                 1.4457                 1.3521
 Red. Mass:       5.7317                 1.1583                 1.0663
 IR Intens:      326.162                  8.919                 25.088
 Frequency:      1469.27                1472.14                1507.76
 Force Cnst:      1.3739                 1.3781                 1.6487
 Red. Mass:       1.0802                 1.0793                 1.2309
 IR Intens:       10.189                 11.256                288.166
 Frequency:      1574.55                2957.92                3039.05
 Force Cnst:     14.3373                 5.4912                 5.6808
 Red. Mass:       9.8153                 1.0652                 1.0440
 IR Intens:     1252.779                698.731                 10.402
 Frequency:      3043.06                3062.69                3091.79
 Force Cnst:      5.7642                 5.8818                 6.1663
 Red. Mass:       1.0565                 1.0643                 1.0948
 IR Intens:       79.422                 40.208                 14.260
 Frequency:      3114.38                3117.36                3124.06
 Force Cnst:      6.2884                 6.3055                 6.3414
 Red. Mass:       1.1004                 1.1013                 1.1028
 IR Intens:       12.460                136.446                 62.120

 STANDARD THERMODYNAMIC QUANTITIES AT   298.15 K  AND     1.00 ATM

   This Molecule has  0 Imaginary Frequencies
   Zero point vibrational energy:       83.795 kcal/mol

   Atom    1 Element C  Has Mass   12.00000
   Atom    2 Element O  Has Mass   15.99491
   Atom    3 Element C  Has Mass   12.00000
   Atom    4 Element H  Has Mass    1.00783
   Atom    5 Element H  Has Mass    1.00783
   Atom    6 Element H  Has Mass    1.00783
   Atom    7 Element C  Has Mass   12.00000
   Atom    8 Element H  Has Mass    1.00783
   Atom    9 Element H  Has Mass    1.00783
   Atom   10 Element C  Has Mass   12.00000
   Atom   11 Element H  Has Mass    1.00783
   Atom   12 Element H  Has Mass    1.00783
   Atom   13 Element C  Has Mass   12.00000
   Atom   14 Element O  Has Mass   15.99491
   Atom   15 Element O  Has Mass   15.99491
   Atom   16 Element O  Has Mass   15.99491
   Atom   17 Element O  Has Mass   15.99491
   Atom   18 Element H  Has Mass    1.00783
   Molecular Mass:   148.037190 amu
   Principal axes and moments of inertia in amu*Bohr^2:
                             1           2           3
    Eigenvalues --      673.84747  2792.46628  3099.84204
          X               0.94717     0.29419    -0.12775
          Y              -0.26711     0.94403     0.19354
          Z               0.17754    -0.14919     0.97274
   Rotational Symmetry Number is   1
   The Molecule is an Asymmetric Top
   Translational Enthalpy:        0.889 kcal/mol
   Rotational Enthalpy:           0.889 kcal/mol
   Vibrational Enthalpy:         88.606 kcal/mol
   gas constant (RT):             0.592 kcal/mol
   Translational Entropy:        40.887  cal/mol.K
   Rotational Entropy:           30.146  cal/mol.K
   Vibrational Entropy:          31.583  cal/mol.K

   Total Enthalpy:               90.975 kcal/mol
   Total Entropy:               102.616  cal/mol.K

 Total job time:  34556.67s(wall), 485389.68s(cpu)
        *  Thank you very much for using Q-Chem.  Have a nice day.  *
