 Q-Chem 5.0, Q-Chem, Inc., Pleasanton, CA (2017)
 Q-Chem 5.0.2 for Intel X86 EM64T Linux

User input:
--------------------------------------------------------------
$molecule
-2 1
C       -1.5667699201    1.6699070658    1.0823751939
O       -2.4791137511    2.1460642168    1.7265371188
C       -0.9941201782    2.3170294822   -0.1474461410
H       -1.4832747629    3.2774229451   -0.2989794578
H        0.0844352865    2.4592155723   -0.0432756004
H       -1.1647442935    1.6759825439   -1.0170213742
C        0.0451529684   -0.1165570373    0.7725080300
H       -0.2261658558   -0.2251044109   -0.2794509673
H        0.9284401679    0.5211444238    0.8527572616
C        0.2795795670   -1.4666996395    1.4126362593
H       -0.6304017744   -2.0728268166    1.3443700679
H        0.4994836728   -1.3438427522    2.4783986951
C        1.4323957398   -2.2577974202    0.7729684103
O        2.0516353875   -1.7273512705   -0.1839680306
O        1.6649461288   -3.3896128466    1.2691068958
O       -1.0515090280    0.5042719290    1.4904416126
O       -3.2810527778   -0.9906489985   -0.7115905710
H       -2.7970833773   -0.7946228960    0.0972626283
$end

$rem
jobtype               freq
method                wb97x-v
basis                 def2-tzvpd
symmetry              off
sym_ignore            true
unrestricted          false
incdft                false
incfock               0
!scf_algorithm        diis_gdm
scf_convergence       8
thresh                14
!purecart             112
max_scf_cycles        1000
geom_opt_max_cycles   500
geom_opt_dmax         100
geom_opt_tol_gradient 10
solvent_method        pcm
ideriv                1
rpath_tol_displacement 1000
rpath_max_cycles      100
rpath_direction       1
!scf_guess            read
scf_guess             read
$end

$pcm
theory              cosmo
method              iswig
Radii               bondi
vdwScale            1.20
hpoints             110
heavypoints         110
$end

$solvent
dielectric 78.400000
$end

--------------------------------------------------------------

   17    -571.8093054720      5.46E-09 Convergence criterion met
 Total energy in the final basis set = -571.80930547
   15    -571.8093043376      4.41E-09 Convergence criterion met
 Total energy in the final basis set = -571.80930434
   14    -571.8093043424      7.26E-09 Convergence criterion met
 Total energy in the final basis set = -571.80930434
   14    -571.8093045525      9.12E-09 Convergence criterion met
 Total energy in the final basis set = -571.80930455
   14    -571.8093045475      6.57E-09 Convergence criterion met
 Total energy in the final basis set = -571.80930455
   14    -571.8093044062      5.67E-09 Convergence criterion met
 Total energy in the final basis set = -571.80930441
   14    -571.8093044034      6.15E-09 Convergence criterion met
 Total energy in the final basis set = -571.80930440
   14    -571.8093046315      6.28E-09 Convergence criterion met
 Total energy in the final basis set = -571.80930479
   15    -571.8093048127      5.95E-09 Convergence criterion met
 Total energy in the final basis set = -571.80930481
   17    -571.8093052277      1.43E-09 Convergence criterion met
 Total energy in the final basis set = -571.80930523
   16    -571.8093052295      4.90E-09 Convergence criterion met
 Total energy in the final basis set = -571.80930523
   16    -571.8093054276      5.55E-09 Convergence criterion met
 Total energy in the final basis set = -571.80930543
   17    -571.8093054294      1.21E-09 Convergence criterion met
 Total energy in the final basis set = -571.80930543
   16    -571.8093048027      2.68E-09 Convergence criterion met
 Total energy in the final basis set = -571.80930480
   14    -571.8093048003      6.54E-09 Convergence criterion met
 Total energy in the final basis set = -571.80930480

                    Orbital Energies (a.u.)
 --------------------------------------------------------------

 Alpha MOs
 -- Occupied --
-19.255 -19.197 -19.144 -19.141 -19.092 -10.405 -10.347 -10.318
-10.271 -10.257  -1.236  -1.149  -1.147  -1.054  -0.965  -0.904
 -0.876  -0.777  -0.685  -0.620  -0.618  -0.606  -0.580  -0.562
 -0.535  -0.527  -0.511  -0.509  -0.488  -0.483  -0.451  -0.447
 -0.444  -0.401  -0.389  -0.350  -0.340  -0.336  -0.312  -0.312

          Ground-State Mulliken Net Atomic Charges

     Atom                 Charge (a.u.)
  ----------------------------------------
      1 C                     0.466159
      2 O                    -0.550086
      3 C                    -0.651602
      4 H                     0.215237
      5 H                     0.293712
      6 H                     0.274402
      7 C                    -0.218226
      8 H                     0.231906
      9 H                     0.315845
     10 C                    -0.254673
     11 H                     0.241218
     12 H                     0.261481
     13 C                     0.047159
     14 O                    -0.690690
     15 O                    -0.702431
     16 O                    -0.269166
     17 O                    -1.095211
     18 H                     0.084968
  ----------------------------------------
  Sum of atomic charges =    -2.000000

                    Cartesian Multipole Moments
 -----------------------------------------------------------------
    Charge (ESU x 10^10)
                -9.6064
    Dipole Moment (Debye)
         X      11.1004      Y      16.4206      Z      -1.3795
       Tot      19.8685
    Quadrupole Moments (Debye-Ang)
        XX    -154.1679     XY      18.2900     YY    -113.8766
        XZ      -5.2516     YZ      -1.8408     ZZ     -79.8279

             Standard Nuclear Orientation (Angstroms)
    I     Atom           X                Y                Z
 ----------------------------------------------------------------
    1      C      -1.5667699201     1.6699070658     1.0823751939
    2      O      -2.4791137511     2.1460642168     1.7265371188
    3      C      -0.9941201782     2.3170294822    -0.1474461410
    4      H      -1.4832747629     3.2774229451    -0.2989794578
    5      H       0.0844352865     2.4592155723    -0.0432756004
    6      H      -1.1647442935     1.6759825439    -1.0170213742
    7      C       0.0451529684    -0.1165570373     0.7725080300
    8      H      -0.2261658558    -0.2251044109    -0.2794509673
    9      H       0.9284401679     0.5211444238     0.8527572616
   10      C       0.2795795670    -1.4666996395     1.4126362593
   11      H      -0.6304017744    -2.0728268166     1.3443700679
   12      H       0.4994836728    -1.3438427522     2.4783986951
   13      C       1.4323957398    -2.2577974202     0.7729684103
   14      O       2.0516353875    -1.7273512705    -0.1839680306
   15      O       1.6649461288    -3.3896128466     1.2691068958
   16      O      -1.0515090280     0.5042719290     1.4904416126
   17      O      -3.2810527778    -0.9906489985    -0.7115905710
   18      H      -2.7970833773    -0.7946228960     0.0972626283
 ----------------------------------------------------------------

 Frequency:        28.63                  37.18                  47.57
 Force Cnst:      0.0045                 0.0077                 0.0058
 Red. Mass:       9.2809                 9.4632                 4.3356
 IR Intens:       35.770                 16.870                 10.635
 Frequency:        63.77                  83.60                  99.23
 Force Cnst:      0.0192                 0.0141                 0.0171
 Red. Mass:       7.9929                 3.4201                 2.9520
 IR Intens:        2.223                 65.443                 12.346
 Frequency:       104.81                 177.84                 191.39
 Force Cnst:      0.0398                 0.0383                 0.0271
 Red. Mass:       6.1440                 2.0558                 1.2539
 IR Intens:       25.080                 18.476                 10.718
 Frequency:       221.96                 245.11                 262.60
 Force Cnst:      0.0321                 0.0383                 0.2923
 Red. Mass:       1.1046                 1.0827                 7.1942
 IR Intens:      111.957                117.664                  2.888
 Frequency:       294.43                 468.81                 535.47
 Force Cnst:      0.2731                 0.5085                 0.7360
 Red. Mass:       5.3475                 3.9270                 4.3566
 IR Intens:        2.555                  2.577                  1.289
 Frequency:       589.69                 598.45                 603.66
 Force Cnst:      0.5013                 0.4201                 1.2008
 Red. Mass:       2.4468                 1.9909                 5.5930
 IR Intens:       12.433                  6.126                 69.031
 Frequency:       695.05                 827.94                 856.89
 Force Cnst:      1.7452                 0.5848                 2.5763
 Red. Mass:       6.1316                 1.4481                 5.9553
 IR Intens:       44.176                 11.664                  6.689
 Frequency:       939.67                1027.84                1065.49
 Force Cnst:      2.2263                 1.0035                 1.2523
 Red. Mass:       4.2795                 1.6121                 1.8722
 IR Intens:       35.372                 54.880                 16.834
 Frequency:      1085.87                1089.98                1128.14
 Force Cnst:      1.3396                 6.0318                 2.0923
 Red. Mass:       1.9282                 8.6170                 2.7902
 IR Intens:       13.672                211.812                  1.327
 Frequency:      1225.77                1289.20                1295.70
 Force Cnst:      1.0579                 1.8611                 2.1832
 Red. Mass:       1.1950                 1.9005                 2.2071
 IR Intens:        6.338                477.401                289.572
 Frequency:      1321.65                1404.17                1415.82
 Force Cnst:      1.1324                 1.6125                 1.9669
 Red. Mass:       1.1003                 1.3880                 1.6654
 IR Intens:        7.471                136.635                 76.300
 Frequency:      1433.09                1455.46                1464.45
 Force Cnst:      4.6991                 1.3542                 1.5535
 Red. Mass:       3.8834                 1.0850                 1.2295
 IR Intens:      285.181                 14.276                 45.488
 Frequency:      1471.04                1500.11                1596.24
 Force Cnst:      1.3423                 1.4653                15.9740
 Red. Mass:       1.0528                 1.1052                10.6406
 IR Intens:       16.947                  6.446               1284.485
 Frequency:      1764.40                3068.20                3077.36
 Force Cnst:     19.8628                 5.8869                 5.7921
 Red. Mass:      10.8292                 1.0614                 1.0381
 IR Intens:      729.364                 19.814                  0.512
 Frequency:      3092.44                3110.42                3148.91
 Force Cnst:      5.9533                 6.2847                 6.4383
 Red. Mass:       1.0566                 1.1025                 1.1020
 IR Intens:       33.018                 11.505                  1.956
 Frequency:      3155.07                3191.05                3850.84
 Force Cnst:      6.5015                 6.6250                 9.3199
 Red. Mass:       1.1085                 1.1042                 1.0667
 IR Intens:       32.185                  8.098                  1.599

 STANDARD THERMODYNAMIC QUANTITIES AT   298.15 K  AND     1.00 ATM

   This Molecule has  0 Imaginary Frequencies
   Zero point vibrational energy:       82.490 kcal/mol

   Atom    1 Element C  Has Mass   12.00000
   Atom    2 Element O  Has Mass   15.99491
   Atom    3 Element C  Has Mass   12.00000
   Atom    4 Element H  Has Mass    1.00783
   Atom    5 Element H  Has Mass    1.00783
   Atom    6 Element H  Has Mass    1.00783
   Atom    7 Element C  Has Mass   12.00000
   Atom    8 Element H  Has Mass    1.00783
   Atom    9 Element H  Has Mass    1.00783
   Atom   10 Element C  Has Mass   12.00000
   Atom   11 Element H  Has Mass    1.00783
   Atom   12 Element H  Has Mass    1.00783
   Atom   13 Element C  Has Mass   12.00000
   Atom   14 Element O  Has Mass   15.99491
   Atom   15 Element O  Has Mass   15.99491
   Atom   16 Element O  Has Mass   15.99491
   Atom   17 Element O  Has Mass   15.99491
   Atom   18 Element H  Has Mass    1.00783
   Molecular Mass:   148.037190 amu
   Principal axes and moments of inertia in amu*Bohr^2:
                             1           2           3
    Eigenvalues --      965.58322  3203.11038  3505.27638
          X              -0.66841     0.70050    -0.25007
          Y               0.74379     0.63002    -0.22325
          Z              -0.00116     0.33522     0.94214
   Rotational Symmetry Number is   1
   The Molecule is an Asymmetric Top
   Translational Enthalpy:        0.889 kcal/mol
   Rotational Enthalpy:           0.889 kcal/mol
   Vibrational Enthalpy:         88.868 kcal/mol
   gas constant (RT):             0.592 kcal/mol
   Translational Entropy:        40.887  cal/mol.K
   Rotational Entropy:           30.761  cal/mol.K
   Vibrational Entropy:          46.619  cal/mol.K

   Total Enthalpy:               91.238 kcal/mol
   Total Entropy:               118.268  cal/mol.K

 Total job time:  34762.61s(wall), 480672.98s(cpu)
        *  Thank you very much for using Q-Chem.  Have a nice day.  *
