 Q-Chem 5.0, Q-Chem, Inc., Pleasanton, CA (2017)
 Q-Chem 5.0.2 for Intel X86 EM64T Linux

User input:
--------------------------------------------------------------
$molecule
-2 1
C       -0.4410911054    0.8373798842    0.3638802976
C        0.8387259526    0.4879819790    1.1527251392
O        0.7627302302   -0.3991102526    2.0383455964
O        1.8662897030    1.1565040314    0.8658724557
C       -1.4403408039   -0.2525494131    0.2368724036
H       -0.1578418226    1.2304603930   -0.6180790553
H       -0.8801790630    1.6983249789    0.9012285718
H       -2.1781170184   -0.2308308648   -0.5584649801
H       -1.5082292145   -1.0245933949    0.9939974437
O        1.3496353728   -1.2268217651   -2.2572743649
O        1.7521190859   -2.2111432645   -3.0457499270
$end

$rem
jobtype               freq
method                wb97x-v
basis                 def2-tzvpd
symmetry              off
sym_ignore            true
unrestricted          true
incdft                false
incfock               0
!scf_algorithm         diis_gdm
scf_convergence       8
thresh                14
!purecart             112
max_scf_cycles        1000
geom_opt_max_cycles   500
geom_opt_dmax         100
geom_opt_tol_gradient 10
solvent_method        pcm
ideriv                1
rpath_tol_displacement 1000
rpath_max_cycles      100
rpath_direction       1
!scf_guess            read
scf_guess             read
$end

$pcm
theory              cosmo
method              iswig
Radii               bondi
vdwScale            1.20
hpoints             110
heavypoints         110
$end

$solvent
dielectric 78.400000
$end

--------------------------------------------------------------

   18    -417.7594967171      7.34E-09 Convergence criterion met
 Total energy in the final basis set = -417.75949672
   17    -417.7594959062      1.58E-09 Convergence criterion met
 Total energy in the final basis set = -417.75949591
   16    -417.7594958668      6.62E-09 Convergence criterion met
 Total energy in the final basis set = -417.75949587
   16    -417.7594958554      6.25E-09 Convergence criterion met
 Total energy in the final basis set = -417.75949586
   16    -417.7594958165      7.06E-09 Convergence criterion met
 Total energy in the final basis set = -417.75949582
   16    -417.7594957517      9.41E-09 Convergence criterion met
 Total energy in the final basis set = -417.75949575
   16    -417.7594957762      8.57E-09 Convergence criterion met
 Total energy in the final basis set = -417.75949578
   16    -417.7594956202      8.97E-09 Convergence criterion met
 Total energy in the final basis set = -417.75949641
   16    -417.7594963602      9.32E-09 Convergence criterion met
 Total energy in the final basis set = -417.75949636
   17    -417.7594965738      7.76E-09 Convergence criterion met
 Total energy in the final basis set = -417.75949657
   16    -417.7594966613      1.00E-08 Convergence criterion met
 Total energy in the final basis set = -417.75949666
   17    -417.7594961345      7.36E-09 Convergence criterion met
 Total energy in the final basis set = -417.75949613
   17    -417.7594962990      8.65E-09 Convergence criterion met
 Total energy in the final basis set = -417.75949630
   17    -417.7594964191      8.31E-09 Convergence criterion met
 Total energy in the final basis set = -417.75949642
   17    -417.7594963482      8.26E-09 Convergence criterion met
 Total energy in the final basis set = -417.75949635

                    Orbital Energies (a.u.)
 --------------------------------------------------------------

 Alpha MOs
 -- Occupied --
-19.181 -19.181 -19.141 -19.140 -10.343 -10.261 -10.255  -1.161
 -1.145  -1.051  -0.886  -0.792  -0.738  -0.607  -0.556  -0.546
 -0.524  -0.496  -0.479  -0.466  -0.457  -0.455  -0.413  -0.350
 -0.343  -0.333  -0.288  -0.248

 Beta MOs
 -- Occupied --
-19.193 -19.193 -19.141 -19.140 -10.343 -10.255 -10.250  -1.191
 -1.145  -1.051  -0.871  -0.837  -0.712  -0.603  -0.552  -0.537
 -0.521  -0.506  -0.497  -0.491  -0.470  -0.459  -0.448  -0.349
 -0.338  -0.331  -0.304  -0.265

          Ground-State Mulliken Net Atomic Charges

     Atom                 Charge (a.u.)    Spin (a.u.)
  --------------------------------------------------------
      1 C                     0.159801      -0.075753
      2 C                     0.222342       0.017662
      3 O                    -0.697680       0.001431
      4 O                    -0.710631       0.008596
      5 C                    -0.876813       0.937016
      6 H                     0.179494       0.012550
      7 H                     0.202254       0.086132
      8 H                     0.261339       0.001192
      9 H                     0.258865       0.007012
     10 O                    -0.438522      -0.486354
     11 O                    -0.560448      -0.509483
  --------------------------------------------------------
  Sum of atomic charges =    -2.000000

                    Cartesian Multipole Moments
 -----------------------------------------------------------------
    Charge (ESU x 10^10)
                -9.6064
    Dipole Moment (Debye)
         X     -15.0493      Y       7.1583      Z       5.0354
       Tot      17.4092
    Quadrupole Moments (Debye-Ang)
        XX     -71.9271     XY       7.5262     YY     -66.2832
        XZ      10.5582     YZ     -22.0057     ZZ     -95.4744

             Standard Nuclear Orientation (Angstroms)
    I     Atom           X                Y                Z
 ----------------------------------------------------------------
    1      C      -0.4410911054     0.8373798842     0.3638802976
    2      C       0.8387259526     0.4879819790     1.1527251392
    3      O       0.7627302302    -0.3991102526     2.0383455964
    4      O       1.8662897030     1.1565040314     0.8658724557
    5      C      -1.4403408039    -0.2525494131     0.2368724036
    6      H      -0.1578418226     1.2304603930    -0.6180790553
    7      H      -0.8801790630     1.6983249789     0.9012285718
    8      H      -2.1781170184    -0.2308308648    -0.5584649801
    9      H      -1.5082292145    -1.0245933949     0.9939974437
   10      O       1.3496353728    -1.2268217651    -2.2572743649
   11      O       1.7521190859    -2.2111432645    -3.0457499270
 ----------------------------------------------------------------

 Frequency:        32.88                  42.60                  47.11
 Force Cnst:      0.0052                 0.0110                 0.0049
 Red. Mass:       8.1707                10.2899                 3.7236
 IR Intens:        4.166                  0.136                  2.011
 Frequency:        51.82                  61.08                  85.18
 Force Cnst:      0.0066                 0.0132                 0.0565
 Red. Mass:       4.1442                 6.0145                13.2093
 IR Intens:       12.467                 10.523                  1.286
 Frequency:       131.41                 271.05                 432.07
 Force Cnst:      0.0106                 0.1495                 0.1500
 Red. Mass:       1.0374                 3.4535                 1.3638
 IR Intens:        0.220                  5.090                 73.362
 Frequency:       491.12                 588.50                 658.72
 Force Cnst:      0.4586                 0.6577                 0.6812
 Red. Mass:       3.2268                 3.2233                 2.6647
 IR Intens:       34.151                 42.923                  9.688
 Frequency:       853.47                 922.41                1019.52
 Force Cnst:      1.4555                 1.6160                 0.9866
 Red. Mass:       3.3913                 3.2236                 1.6111
 IR Intens:       46.653                  7.850                 12.375
 Frequency:      1110.59                1178.39                1272.67
 Force Cnst:      1.6542                 1.0183                15.2624
 Red. Mass:       2.2763                 1.2446                15.9933
 IR Intens:        1.822                  4.929                  0.026
 Frequency:      1320.94                1416.14                1429.37
 Force Cnst:      1.7269                 1.9582                 1.8460
 Red. Mass:       1.6798                 1.6573                 1.5336
 IR Intens:       45.311                201.398                 82.383
 Frequency:      1441.03                1596.77                2960.61
 Force Cnst:      2.0974                15.5411                 5.5389
 Red. Mass:       1.7143                10.3454                 1.0725
 IR Intens:      148.871               1252.374                 26.510
 Frequency:      3086.24                3160.52                3267.98
 Force Cnst:      6.0934                 6.1885                 7.0377
 Red. Mass:       1.0858                 1.0515                 1.1185
 IR Intens:       29.706                 27.284                 11.211

 STANDARD THERMODYNAMIC QUANTITIES AT   298.15 K  AND     1.00 ATM

   This Molecule has  0 Imaginary Frequencies
   Zero point vibrational energy:       41.358 kcal/mol

   Atom    1 Element C  Has Mass   12.00000
   Atom    2 Element C  Has Mass   12.00000
   Atom    3 Element O  Has Mass   15.99491
   Atom    4 Element O  Has Mass   15.99491
   Atom    5 Element C  Has Mass   12.00000
   Atom    6 Element H  Has Mass    1.00783
   Atom    7 Element H  Has Mass    1.00783
   Atom    8 Element H  Has Mass    1.00783
   Atom    9 Element H  Has Mass    1.00783
   Atom   10 Element O  Has Mass   15.99491
   Atom   11 Element O  Has Mass   15.99491
   Molecular Mass:   104.010960 amu
   Principal axes and moments of inertia in amu*Bohr^2:
                             1           2           3
    Eigenvalues --      572.08626  1716.57097  1968.67778
          X              -0.23974     0.96925    -0.05546
          Y               0.47787     0.16753     0.86231
          Z               0.84509     0.18023    -0.50334
   Rotational Symmetry Number is   1
   The Molecule is an Asymmetric Top
   Translational Enthalpy:        0.889 kcal/mol
   Rotational Enthalpy:           0.889 kcal/mol
   Vibrational Enthalpy:         45.842 kcal/mol
   gas constant (RT):             0.592 kcal/mol
   Translational Entropy:        39.835  cal/mol.K
   Rotational Entropy:           29.048  cal/mol.K
   Vibrational Entropy:          36.127  cal/mol.K

   Total Enthalpy:               48.212 kcal/mol
   Total Entropy:               105.011  cal/mol.K

 Total job time:  6651.05s(wall), 93066.66s(cpu)
        *  Thank you very much for using Q-Chem.  Have a nice day.  *
