 Q-Chem 5.0, Q-Chem, Inc., Pleasanton, CA (2017)
 Q-Chem 5.0.2 for Intel X86 EM64T Linux

User input:
--------------------------------------------------------------
$molecule
-2 1
C       -0.3393015153    0.7624825649    0.0875791043
C        0.7256308954    0.8419267390    1.1939242022
O        0.6607439319   -0.0108725973    2.1176056413
O        1.5776145266    1.7671387630    1.1149771850
C       -0.4841427891   -0.6249375374   -0.5178400676
H       -0.1111922146    1.4916915543   -0.6952185260
H       -1.3021783896    1.0419282351    0.5325794298
H       -1.3062677379   -0.6354665394   -1.2523649599
H       -0.7230999727   -1.3596108757    0.2653755154
O        0.7230094017   -0.9693673466   -1.1465872224
O        0.5791700105   -2.3053260954   -1.7001829228
$end

$rem
jobtype               freq
method                wb97x-v
basis                 def2-tzvpd
symmetry              off
sym_ignore            true
unrestricted          true
incdft                false
incfock               0
scf_convergence       8
thresh                14
!purecart             112
max_scf_cycles        1000
geom_opt_max_cycles   500
geom_opt_dmax         100
geom_opt_tol_gradient 10
solvent_method        pcm
ideriv                1
rpath_tol_displacement 1000
rpath_max_cycles      100
rpath_direction       1
!scf_guess            read
scf_guess             read
$end

$pcm
theory              cosmo
method              iswig
Radii               bondi
vdwScale            1.20
hpoints             110
heavypoints         110
$end

$solvent
dielectric 78.400000
$end

--------------------------------------------------------------

   17    -417.8393129436      6.28E-09 Convergence criterion met
 Total energy in the final basis set = -417.83931294
   16    -417.8393120329      2.78E-09 Convergence criterion met
 Total energy in the final basis set = -417.83931203
   15    -417.8393119738      5.47E-09 Convergence criterion met
 Total energy in the final basis set = -417.83931197
   15    -417.8393120036      3.99E-09 Convergence criterion met
 Total energy in the final basis set = -417.83931200
   15    -417.8393119915      4.69E-09 Convergence criterion met
 Total energy in the final basis set = -417.83931199
   15    -417.8393120025      4.12E-09 Convergence criterion met
 Total energy in the final basis set = -417.83931200
   15    -417.8393119820      5.16E-09 Convergence criterion met
 Total energy in the final basis set = -417.83931198
   15    -417.8393120417      4.11E-09 Convergence criterion met
 Total energy in the final basis set = -417.83931267
   15    -417.8393126742      5.04E-09 Convergence criterion met
 Total energy in the final basis set = -417.83931267
   16    -417.8393128871      7.82E-09 Convergence criterion met
 Total energy in the final basis set = -417.83931289
   16    -417.8393128720      4.02E-09 Convergence criterion met
 Total energy in the final basis set = -417.83931287
   16    -417.8393125078      1.77E-09 Convergence criterion met
 Total energy in the final basis set = -417.83931251
   15    -417.8393125387      4.46E-09 Convergence criterion met
 Total energy in the final basis set = -417.83931254
   15    -417.8393128338      8.92E-09 Convergence criterion met
 Total energy in the final basis set = -417.83931283
   15    -417.8393128560      8.24E-09 Convergence criterion met
 Total energy in the final basis set = -417.83931286

                    Orbital Energies (a.u.)
 --------------------------------------------------------------

 Alpha MOs
 -- Occupied --
-19.204 -19.139 -19.137 -19.134 -10.339 -10.284 -10.245  -1.153
 -1.140  -1.047  -0.921  -0.835  -0.715  -0.605  -0.560  -0.555
 -0.527  -0.509  -0.500  -0.477  -0.449  -0.412  -0.391  -0.346
 -0.333  -0.328  -0.299  -0.267

 Beta MOs
 -- Occupied --
-19.204 -19.139 -19.137 -19.134 -10.339 -10.284 -10.245  -1.153
 -1.140  -1.047  -0.921  -0.835  -0.715  -0.605  -0.560  -0.555
 -0.527  -0.509  -0.500  -0.477  -0.449  -0.412  -0.391  -0.346
 -0.333  -0.328  -0.299  -0.267

          Ground-State Mulliken Net Atomic Charges

     Atom                 Charge (a.u.)    Spin (a.u.)
  --------------------------------------------------------
      1 C                    -0.005859       0.000000
      2 C                     0.176146      -0.000000
      3 O                    -0.710834       0.000000
      4 O                    -0.716573       0.000000
      5 C                    -0.291045       0.000000
      6 H                     0.166668       0.000000
      7 H                     0.202614      -0.000000
      8 H                     0.154376      -0.000000
      9 H                     0.124858      -0.000000
     10 O                    -0.187992      -0.000000
     11 O                    -0.912360      -0.000000
  --------------------------------------------------------
  Sum of atomic charges =    -2.000000

                    Cartesian Multipole Moments
 -----------------------------------------------------------------
    Charge (ESU x 10^10)
                -9.6064
    Dipole Moment (Debye)
         X     -10.8281      Y       6.1954      Z      -0.6145
       Tot      12.4903
    Quadrupole Moments (Debye-Ang)
        XX     -58.8437     XY      -2.6823     YY     -79.8363
        XZ      -4.4145     YZ     -22.2996     ZZ     -78.7684

             Standard Nuclear Orientation (Angstroms)
    I     Atom           X                Y                Z
 ----------------------------------------------------------------
    1      C      -0.3393015153     0.7624825649     0.0875791043
    2      C       0.7256308954     0.8419267390     1.1939242022
    3      O       0.6607439319    -0.0108725973     2.1176056413
    4      O       1.5776145266     1.7671387630     1.1149771850
    5      C      -0.4841427891    -0.6249375374    -0.5178400676
    6      H      -0.1111922146     1.4916915543    -0.6952185260
    7      H      -1.3021783896     1.0419282351     0.5325794298
    8      H      -1.3062677379    -0.6354665394    -1.2523649599
    9      H      -0.7230999727    -1.3596108757     0.2653755154
   10      O       0.7230094017    -0.9693673466    -1.1465872224
   11      O       0.5791700105    -2.3053260954    -1.7001829228
 ----------------------------------------------------------------

 Frequency:        60.11                 107.13                 143.55
 Force Cnst:      0.0211                 0.0625                 0.0798
 Red. Mass:       9.9270                 9.2380                 6.5695
 IR Intens:        8.064                 16.052                  1.098
 Frequency:       249.76                 322.37                 423.32
 Force Cnst:      0.1033                 0.2532                 0.3878
 Red. Mass:       2.8098                 4.1348                 3.6729
 IR Intens:        6.377                  8.233                 15.003
 Frequency:       533.41                 617.25                 721.33
 Force Cnst:      0.7820                 1.0208                 0.7593
 Red. Mass:       4.6648                 4.5476                 2.4769
 IR Intens:       47.938                 33.844                 12.035
 Frequency:       870.17                 882.66                 985.63
 Force Cnst:      1.3969                 1.9077                 2.9123
 Red. Mass:       3.1312                 4.1559                 5.0880
 IR Intens:       13.341                 17.737                  4.180
 Frequency:      1027.81                1083.03                1135.49
 Force Cnst:      1.2671                 1.2936                 3.0535
 Red. Mass:       2.0358                 1.8718                 4.0196
 IR Intens:        7.335                 13.253                 94.608
 Frequency:      1226.06                1254.13                1332.50
 Force Cnst:      1.1427                 1.2154                 1.6902
 Red. Mass:       1.2902                 1.3115                 1.6157
 IR Intens:       39.141                 26.863                 42.411
 Frequency:      1384.15                1441.20                1456.22
 Force Cnst:      1.7147                 2.5661                 2.0730
 Red. Mass:       1.5191                 2.0969                 1.6592
 IR Intens:       36.112                175.881                164.863
 Frequency:      1500.43                1583.74                2978.57
 Force Cnst:      1.4636                14.4518                 5.5576
 Red. Mass:       1.1034                 9.7792                 1.0632
 IR Intens:       23.305               1286.566                148.186
 Frequency:      3021.18                3061.81                3112.87
 Force Cnst:      5.8904                 5.8706                 6.2900
 Red. Mass:       1.0953                 1.0629                 1.1017
 IR Intens:      113.136                 43.002                 60.942

 STANDARD THERMODYNAMIC QUANTITIES AT   298.15 K  AND     1.00 ATM

   This Molecule has  0 Imaginary Frequencies
   Zero point vibrational energy:       46.484 kcal/mol

   Atom    1 Element C  Has Mass   12.00000
   Atom    2 Element C  Has Mass   12.00000
   Atom    3 Element O  Has Mass   15.99491
   Atom    4 Element O  Has Mass   15.99491
   Atom    5 Element C  Has Mass   12.00000
   Atom    6 Element H  Has Mass    1.00783
   Atom    7 Element H  Has Mass    1.00783
   Atom    8 Element H  Has Mass    1.00783
   Atom    9 Element H  Has Mass    1.00783
   Atom   10 Element O  Has Mass   15.99491
   Atom   11 Element O  Has Mass   15.99491
   Molecular Mass:   104.010960 amu
   Principal axes and moments of inertia in amu*Bohr^2:
                             1           2           3
    Eigenvalues --      323.21545  1270.33497  1285.98011
          X               0.14431    -0.27703     0.94996
          Y               0.69194     0.71454     0.10326
          Z               0.70739    -0.64241    -0.29480
   Rotational Symmetry Number is   1
   The Molecule is an Asymmetric Top
   Translational Enthalpy:        0.889 kcal/mol
   Rotational Enthalpy:           0.889 kcal/mol
   Vibrational Enthalpy:         49.067 kcal/mol
   gas constant (RT):             0.592 kcal/mol
   Translational Entropy:        39.835  cal/mol.K
   Rotational Entropy:           27.759  cal/mol.K
   Vibrational Entropy:          16.496  cal/mol.K

   Total Enthalpy:               51.437 kcal/mol
   Total Entropy:                84.090  cal/mol.K

 Total job time:  7008.22s(wall), 100382.70s(cpu)
        *  Thank you very much for using Q-Chem.  Have a nice day.  *
