 Q-Chem 5.0, Q-Chem, Inc., Pleasanton, CA (2017)
 Q-Chem 5.0.2 for Intel X86 EM64T Linux

User input:
--------------------------------------------------------------
$molecule
-2 1
C        1.0542098780    1.4093348854   -2.4609990292
O        0.6036938542    1.7683528642   -3.5827264951
O        2.2580844331    1.4876111962   -2.1027759950
C        0.0251855184    0.8726969202   -1.4524913993
H       -2.1803786246    0.1479946665    1.7632684629
H       -0.7803647401    0.3883460127   -2.0100673339
C        0.6005430419   -0.0579785768   -0.3993664586
H        0.9228844130   -1.0044246716   -0.8432137420
H        1.4675022561    0.4020597454    0.0824073554
C       -0.3854855232   -0.3584631541    0.8242841566
O       -1.3976464514   -1.0263614423    0.1712526517
H       -0.4143793443    1.7482557895   -0.9592048503
O       -0.7897459289    0.7603211960    1.4554789522
O       -2.9566712547   -0.5334984300    1.7288739715
C        0.3619572226   -1.3309467084    1.7689124846
H       -0.3096800854   -1.6145035323    2.5845142020
H        0.6853323031   -2.2319302513    1.2398441914
H        1.2349590314   -0.8268665085    2.1920088747
$end

$rem
jobtype               freq
method                wb97x-v
basis                 def2-tzvpd
symmetry              off
sym_ignore            true
unrestricted          true
incdft                false
incfock               0
!scf_algorithm        diis_gdm
scf_convergence       8
thresh                14
!purecart             112
max_scf_cycles        1000
geom_opt_max_cycles   500
geom_opt_dmax         100
geom_opt_tol_gradient 10
solvent_method        pcm
ideriv                1
rpath_tol_displacement 1000
rpath_max_cycles      100
rpath_direction       1
scf_guess             read
$end

$pcm
theory              cosmo
method              iswig
Radii               bondi
vdwScale            1.20
hpoints             110
heavypoints         110
$end

$solvent
dielectric 78.400000
$end

--------------------------------------------------------------

   21    -571.6687109865      9.36E-09 Convergence criterion met
 Total energy in the final basis set = -571.66871099
   21    -571.6687097548      8.84E-09 Convergence criterion met
 Total energy in the final basis set = -571.66870975
   21    -571.6687096708      8.58E-09 Convergence criterion met
 Total energy in the final basis set = -571.66870967
   21    -571.6687104380      8.78E-09 Convergence criterion met
 Total energy in the final basis set = -571.66871044
   21    -571.6687104306      8.73E-09 Convergence criterion met
 Total energy in the final basis set = -571.66871043
   21    -571.6687098562      8.69E-09 Convergence criterion met
 Total energy in the final basis set = -571.66870986
   21    -571.6687098116      8.80E-09 Convergence criterion met
 Total energy in the final basis set = -571.66870981
   21    -571.6687107491      8.80E-09 Convergence criterion met
 Total energy in the final basis set = -571.66871079
   21    -571.6687107573      8.95E-09 Convergence criterion met
 Total energy in the final basis set = -571.66871076
   21    -571.6687105279      8.78E-09 Convergence criterion met
 Total energy in the final basis set = -571.66871053
   21    -571.6687106103      8.65E-09 Convergence criterion met
 Total energy in the final basis set = -571.66871061
   21    -571.6687107971      8.74E-09 Convergence criterion met
 Total energy in the final basis set = -571.66871080
   21    -571.6687107778      8.90E-09 Convergence criterion met
 Total energy in the final basis set = -571.66871078
   21    -571.6687108545      8.92E-09 Convergence criterion met
 Total energy in the final basis set = -571.66871085
   21    -571.6687107993      8.58E-09 Convergence criterion met
 Total energy in the final basis set = -571.66871080

                    Orbital Energies (a.u.)
 --------------------------------------------------------------

 Alpha MOs
 -- Occupied --
-19.220 -19.203 -19.139 -19.137 -19.116 -10.340 -10.337 -10.258
-10.244 -10.240  -1.142  -1.130  -1.066  -1.047  -1.016  -0.883
 -0.831  -0.749  -0.623  -0.604  -0.573  -0.554  -0.545  -0.533
 -0.522  -0.509  -0.502  -0.484  -0.481  -0.455  -0.441  -0.439
 -0.423  -0.409  -0.357  -0.347  -0.336  -0.330  -0.323  -0.310

 Beta MOs
 -- Occupied --
-19.217 -19.201 -19.139 -19.138 -19.117 -10.340 -10.337 -10.261
-10.244 -10.241  -1.150  -1.142  -1.047  -1.035  -1.006  -0.889
 -0.836  -0.756  -0.634  -0.606  -0.574  -0.564  -0.546  -0.534
 -0.518  -0.514  -0.502  -0.488  -0.475  -0.461  -0.442  -0.425
 -0.400  -0.388  -0.372  -0.347  -0.337  -0.331  -0.326  -0.305

          Ground-State Mulliken Net Atomic Charges

     Atom                 Charge (a.u.)    Spin (a.u.)
  --------------------------------------------------------
      1 C                     0.036331      -0.006271
      2 O                    -0.709382      -0.001748
      3 O                    -0.699437      -0.001314
      4 C                    -0.322684      -0.006301
      5 H                     0.351522      -0.024866
      6 H                     0.230456      -0.000340
      7 C                    -0.608189      -0.117806
      8 H                     0.316743       0.005247
      9 H                     0.200592      -0.013558
     10 C                     1.445998       0.062562
     11 O                    -0.535571      -0.692789
     12 H                     0.222718      -0.004648
     13 O                    -0.942332      -0.048358
     14 O                    -0.494900       0.921766
     15 C                    -1.214538      -0.077412
     16 H                     0.224925       0.000723
     17 H                     0.254673       0.003592
     18 H                     0.243075       0.001521
  --------------------------------------------------------
  Sum of atomic charges =    -2.000000

                    Cartesian Multipole Moments
 -----------------------------------------------------------------
    Charge (ESU x 10^10)
                -9.6064
    Dipole Moment (Debye)
         X       1.6477      Y      -8.4892      Z       8.6985
       Tot      12.2656
    Quadrupole Moments (Debye-Ang)
        XX    -104.6661     XY     -17.9641     YY     -85.2628
        XZ      29.7441     YZ      25.5803     ZZ    -124.5787

             Standard Nuclear Orientation (Angstroms)
    I     Atom           X                Y                Z
 ----------------------------------------------------------------
    1      C       1.0542098780     1.4093348854    -2.4609990292
    2      O       0.6036938542     1.7683528642    -3.5827264951
    3      O       2.2580844331     1.4876111962    -2.1027759950
    4      C       0.0251855184     0.8726969202    -1.4524913993
    5      H      -2.1803786246     0.1479946665     1.7632684629
    6      H      -0.7803647401     0.3883460127    -2.0100673339
    7      C       0.6005430419    -0.0579785768    -0.3993664586
    8      H       0.9228844130    -1.0044246716    -0.8432137420
    9      H       1.4675022561     0.4020597454     0.0824073554
   10      C      -0.3854855232    -0.3584631541     0.8242841566
   11      O      -1.3976464514    -1.0263614423     0.1712526517
   12      H      -0.4143793443     1.7482557895    -0.9592048503
   13      O      -0.7897459289     0.7603211960     1.4554789522
   14      O      -2.9566712547    -0.5334984300     1.7288739715
   15      C       0.3619572226    -1.3309467084     1.7689124846
   16      H      -0.3096800854    -1.6145035323     2.5845142020
   17      H       0.6853323031    -2.2319302513     1.2398441914
   18      H       1.2349590314    -0.8268665085     2.1920088747
 ----------------------------------------------------------------

 Frequency:      -171.84                  16.59                  57.00
 Force Cnst:      0.1904                 0.0017                 0.0086
 Red. Mass:      10.9426                10.5883                 4.4709
 IR Intens:       20.055                  2.530                 17.193
 Frequency:        64.81                 112.86                 144.29
 Force Cnst:      0.0235                 0.0193                 0.0549
 Red. Mass:       9.4990                 2.5705                 4.4761
 IR Intens:        4.680                  3.780                 15.315
 Frequency:       207.00                 245.48                 259.98
 Force Cnst:      0.1385                 0.0396                 0.2444
 Red. Mass:       5.4855                 1.1145                 6.1384
 IR Intens:       13.747                  0.962                 11.594
 Frequency:       309.09                 351.25                 445.59
 Force Cnst:      0.2117                 0.3282                 0.3508
 Red. Mass:       3.7617                 4.5147                 2.9989
 IR Intens:       10.551                 15.279                 11.267
 Frequency:       477.25                 532.19                 572.81
 Force Cnst:      0.5756                 0.7272                 0.9024
 Red. Mass:       4.2889                 4.3578                 4.6681
 IR Intens:       18.266                 34.744                  7.875
 Frequency:       618.58                 657.14                 717.59
 Force Cnst:      0.6082                 1.7773                 0.8883
 Red. Mass:       2.6977                 6.9853                 2.9280
 IR Intens:       28.013                219.983                 11.498
 Frequency:       799.97                 828.60                 879.98
 Force Cnst:      0.7173                 1.8740                 0.4908
 Red. Mass:       1.9023                 4.6326                 1.0758
 IR Intens:       10.371                 15.523                114.099
 Frequency:       933.12                 954.55                 991.89
 Force Cnst:      2.1153                 1.1363                 0.8840
 Red. Mass:       4.1234                 2.1166                 1.5250
 IR Intens:       12.837                 36.210                  0.388
 Frequency:      1017.08                1084.74                1098.45
 Force Cnst:      1.1428                 1.6793                 1.1178
 Red. Mass:       1.8750                 2.4223                 1.5723
 IR Intens:      139.549                 73.100                216.939
 Frequency:      1102.89                1155.79                1226.78
 Force Cnst:      1.3766                 1.0342                 2.1196
 Red. Mass:       1.9208                 1.3140                 2.3904
 IR Intens:      124.583                 64.838                143.858
 Frequency:      1245.52                1303.29                1346.64
 Force Cnst:      1.3691                 1.2272                 1.7293
 Red. Mass:       1.4979                 1.2262                 1.6186
 IR Intens:       45.314                 33.573                 26.313
 Frequency:      1368.78                1431.22                1457.60
 Force Cnst:      1.4222                10.4668                 1.4146
 Red. Mass:       1.2884                 8.6726                 1.1301
 IR Intens:        3.109                451.427                  8.531
 Frequency:      1464.11                1467.95                1470.84
 Force Cnst:      1.3535                 1.3414                 1.3735
 Red. Mass:       1.0717                 1.0565                 1.0776
 IR Intens:        7.825                  6.192                 27.572
 Frequency:      1580.80                2539.65                3049.50
 Force Cnst:     14.5492                 4.1677                 5.6606
 Red. Mass:       9.8818                 1.0967                 1.0331
 IR Intens:     1265.459                902.012                 43.624
 Frequency:      3063.90                3075.27                3113.79
 Force Cnst:      5.8830                 5.8989                 6.2785
 Red. Mass:       1.0637                 1.0587                 1.0991
 IR Intens:       13.993                 74.065                 12.243
 Frequency:      3131.26                3134.01                3138.42
 Force Cnst:      6.3776                 6.3884                 6.4074
 Red. Mass:       1.1040                 1.1039                 1.1041
 IR Intens:        5.461                 58.124                 73.271

 STANDARD THERMODYNAMIC QUANTITIES AT   298.15 K  AND     1.00 ATM

   This Molecule has  1 Imaginary Frequencies
   Zero point vibrational energy:       80.408 kcal/mol

   Atom    1 Element C  Has Mass   12.00000
   Atom    2 Element O  Has Mass   15.99491
   Atom    3 Element O  Has Mass   15.99491
   Atom    4 Element C  Has Mass   12.00000
   Atom    5 Element H  Has Mass    1.00783
   Atom    6 Element H  Has Mass    1.00783
   Atom    7 Element C  Has Mass   12.00000
   Atom    8 Element H  Has Mass    1.00783
   Atom    9 Element H  Has Mass    1.00783
   Atom   10 Element C  Has Mass   12.00000
   Atom   11 Element O  Has Mass   15.99491
   Atom   12 Element H  Has Mass    1.00783
   Atom   13 Element O  Has Mass   15.99491
   Atom   14 Element O  Has Mass   15.99491
   Atom   15 Element C  Has Mass   12.00000
   Atom   16 Element H  Has Mass    1.00783
   Atom   17 Element H  Has Mass    1.00783
   Atom   18 Element H  Has Mass    1.00783
   Molecular Mass:   148.037190 amu
   Principal axes and moments of inertia in amu*Bohr^2:
                             1           2           3
    Eigenvalues --      678.89235  2993.76656  3305.19294
          X              -0.49674     0.86683     0.04308
          Y              -0.39464    -0.26980     0.87833
          Z               0.77299     0.41930     0.47610
   Rotational Symmetry Number is   1
   The Molecule is an Asymmetric Top
   Translational Enthalpy:        0.889 kcal/mol
   Rotational Enthalpy:           0.889 kcal/mol
   Vibrational Enthalpy:         85.434 kcal/mol
   gas constant (RT):             0.592 kcal/mol
   Translational Entropy:        40.887  cal/mol.K
   Rotational Entropy:           30.286  cal/mol.K
   Vibrational Entropy:          34.953  cal/mol.K

   Total Enthalpy:               87.804 kcal/mol
   Total Entropy:               106.126  cal/mol.K

 Total job time:  53000.12s(wall), 727943.19s(cpu)
        *  Thank you very much for using Q-Chem.  Have a nice day.  *
