 Q-Chem 5.0, Q-Chem, Inc., Pleasanton, CA (2017)
 Q-Chem 5.0.2 for Intel X86 EM64T Linux

User input:
--------------------------------------------------------------
$molecule
-2 1
C        1.0650252415    1.5173815797   -2.5368314245
O        0.6412437425    2.1186436062   -3.5608830279
O        2.2716169453    1.4120486493   -2.1999346899
C       -0.0081087322    0.8792521689   -1.6403357560
H       -1.9990384762    0.2307216395    1.6885144885
H       -0.6493041057    0.2645946988   -2.2819309755
C        0.5330046991    0.0568884832   -0.4792064716
H        1.1159491570   -0.7918724810   -0.8463435896
H        1.1881708243    0.6649354954    0.1505799148
C       -0.5838330331   -0.4891280781    0.4546156287
O       -1.3803393071   -1.3131925969   -0.2797779616
H       -0.6400789036    1.6909453888   -1.2647137577
O       -1.2590791315    0.5810411672    1.0328361550
O       -3.0512585563   -0.1980840732    2.6349604196
C        0.0650177696   -1.3913708655    1.5424887371
H       -0.7145659662   -1.7922204272    2.1941269363
H        0.6235521724   -2.2104620549    1.0865123110
H        0.7399879908   -0.7653961527    2.1307441888
$end

$rem
jobtype               freq
method                wb97x-v
basis                 def2-tzvpd
symmetry              off
sym_ignore            true
unrestricted          true
incdft                false
incfock               0
!scf_algorithm        diis_gdm
scf_convergence       8
thresh                14
!purecart             112
max_scf_cycles        1000
geom_opt_max_cycles   500
geom_opt_dmax         100
geom_opt_tol_gradient 10
solvent_method        pcm
ideriv                1
rpath_tol_displacement 1000
rpath_max_cycles      100
rpath_direction       1
scf_guess             read
$end

$pcm
theory              cosmo
method              iswig
Radii               bondi
vdwScale            1.20
hpoints             110
heavypoints         110
$end

$solvent
dielectric 78.400000
$end

--------------------------------------------------------------

   32    -571.6756127147      8.78E-09 Convergence criterion met
 Total energy in the final basis set = -571.67561271
   26    -571.6756114498      9.40E-09 Convergence criterion met
 Total energy in the final basis set = -571.67561145
   32    -571.6756113889      8.70E-09 Convergence criterion met
 Total energy in the final basis set = -571.67561139
   25    -571.6756120522      9.98E-09 Convergence criterion met
 Total energy in the final basis set = -571.67561205
   32    -571.6756120456      8.80E-09 Convergence criterion met
 Total energy in the final basis set = -571.67561205
   26    -571.6756116795      9.13E-09 Convergence criterion met
 Total energy in the final basis set = -571.67561168
   32    -571.6756116785      8.76E-09 Convergence criterion met
 Total energy in the final basis set = -571.67561168
   25    -571.6756124151      9.92E-09 Convergence criterion met
 Total energy in the final basis set = -571.67561253
   25    -571.6756125299      9.36E-09 Convergence criterion met
 Total energy in the final basis set = -571.67561253
   32    -571.6756124280      8.78E-09 Convergence criterion met
 Total energy in the final basis set = -571.67561243
   26    -571.6756124333      9.58E-09 Convergence criterion met
 Total energy in the final basis set = -571.67561243
   32    -571.6756124544      8.84E-09 Convergence criterion met
 Total energy in the final basis set = -571.67561245
   26    -571.6756124497      9.62E-09 Convergence criterion met
 Total energy in the final basis set = -571.67561245
   32    -571.6756124813      8.99E-09 Convergence criterion met
 Total energy in the final basis set = -571.67561248
   25    -571.6756124777      9.78E-09 Convergence criterion met
 Total energy in the final basis set = -571.67561248

                    Orbital Energies (a.u.)
 --------------------------------------------------------------

 Alpha MOs
 -- Occupied --
-19.225 -19.168 -19.156 -19.141 -19.138 -10.359 -10.341 -10.260
-10.258 -10.249  -1.156  -1.143  -1.065  -1.049  -0.971  -0.895
 -0.845  -0.764  -0.667  -0.609  -0.595  -0.562  -0.554  -0.548
 -0.527  -0.509  -0.499  -0.484  -0.478  -0.448  -0.441  -0.428
 -0.416  -0.380  -0.366  -0.352  -0.347  -0.343  -0.335  -0.329

 Beta MOs
 -- Occupied --
-19.243 -19.168 -19.141 -19.138 -19.137 -10.359 -10.341 -10.262
-10.260 -10.249  -1.180  -1.143  -1.088  -1.049  -0.906  -0.893
 -0.853  -0.769  -0.673  -0.615  -0.603  -0.579  -0.558  -0.553
 -0.529  -0.518  -0.511  -0.489  -0.484  -0.461  -0.450  -0.430
 -0.416  -0.392  -0.368  -0.347  -0.336  -0.331  -0.326  -0.317

          Ground-State Mulliken Net Atomic Charges

     Atom                 Charge (a.u.)    Spin (a.u.)
  --------------------------------------------------------
      1 C                     0.040155      -0.001767
      2 O                    -0.708640      -0.001255
      3 O                    -0.688614      -0.001111
      4 C                    -0.366824      -0.008881
      5 H                     0.269677      -0.004467
      6 H                     0.264667       0.002261
      7 C                    -0.495674      -0.067785
      8 H                     0.237404       0.000996
      9 H                     0.230630      -0.007367
     10 C                     1.098674       0.053437
     11 O                    -0.416835      -0.847975
     12 H                     0.236101      -0.002184
     13 O                    -0.536554       0.002007
     14 O                    -0.836205       1.005464
     15 C                    -1.124128      -0.119312
     16 H                     0.276894       0.004632
     17 H                     0.265684       0.002819
     18 H                     0.253587      -0.009511
  --------------------------------------------------------
  Sum of atomic charges =    -2.000000

                    Cartesian Multipole Moments
 -----------------------------------------------------------------
    Charge (ESU x 10^10)
                -9.6064
    Dipole Moment (Debye)
         X       6.5477      Y      -8.8738      Z       5.5731
       Tot      12.3562
    Quadrupole Moments (Debye-Ang)
        XX    -122.2030     XY     -16.8941     YY     -86.8676
        XZ      50.9655     YZ      29.2694     ZZ    -139.5458

             Standard Nuclear Orientation (Angstroms)
    I     Atom           X                Y                Z
 ----------------------------------------------------------------
    1      C       1.0650252415     1.5173815797    -2.5368314245
    2      O       0.6412437425     2.1186436062    -3.5608830279
    3      O       2.2716169453     1.4120486493    -2.1999346899
    4      C      -0.0081087322     0.8792521689    -1.6403357560
    5      H      -1.9990384762     0.2307216395     1.6885144885
    6      H      -0.6493041057     0.2645946988    -2.2819309755
    7      C       0.5330046991     0.0568884832    -0.4792064716
    8      H       1.1159491570    -0.7918724810    -0.8463435896
    9      H       1.1881708243     0.6649354954     0.1505799148
   10      C      -0.5838330331    -0.4891280781     0.4546156287
   11      O      -1.3803393071    -1.3131925969    -0.2797779616
   12      H      -0.6400789036     1.6909453888    -1.2647137577
   13      O      -1.2590791315     0.5810411672     1.0328361550
   14      O      -3.0512585563    -0.1980840732     2.6349604196
   15      C       0.0650177696    -1.3913708655     1.5424887371
   16      H      -0.7145659662    -1.7922204272     2.1941269363
   17      H       0.6235521724    -2.2104620549     1.0865123110
   18      H       0.7399879908    -0.7653961527     2.1307441888
 ----------------------------------------------------------------

 Frequency:        31.15                  37.14                  60.76
 Force Cnst:      0.0049                 0.0073                 0.0125
 Red. Mass:       8.5227                 9.0139                 5.7634
 IR Intens:       22.424                  4.169                 29.112
 Frequency:        92.67                 114.00                 142.77
 Force Cnst:      0.0268                 0.0216                 0.0527
 Red. Mass:       5.2876                 2.8160                 4.3899
 IR Intens:        3.250                  8.791                 23.232
 Frequency:       205.88                 233.01                 243.32
 Force Cnst:      0.2713                 0.0411                 0.1033
 Red. Mass:      10.8656                 1.2833                 2.9600
 IR Intens:       17.630                  8.281                 98.809
 Frequency:       300.82                 315.13                 445.43
 Force Cnst:      0.2108                 0.3575                 0.3296
 Red. Mass:       3.9534                 6.1106                 2.8197
 IR Intens:       34.922                154.003                 21.965
 Frequency:       482.64                 509.59                 583.12
 Force Cnst:      0.7113                 0.6470                 0.9478
 Red. Mass:       5.1828                 4.2285                 4.7308
 IR Intens:       16.910                 10.497                  8.415
 Frequency:       589.42                 687.50                 783.29
 Force Cnst:      0.4084                 1.8081                 0.5749
 Red. Mass:       1.9954                 6.4927                 1.5904
 IR Intens:        8.489                 42.189                  8.444
 Frequency:       827.77                 862.62                 899.48
 Force Cnst:      1.7980                 0.5560                 0.9183
 Red. Mass:       4.4536                 1.2682                 1.9265
 IR Intens:        3.490                157.846                 81.931
 Frequency:       928.82                 931.81                 980.63
 Force Cnst:      1.5293                 2.0587                 0.9343
 Red. Mass:       3.0087                 4.0242                 1.6490
 IR Intens:       10.512                 25.201                 41.087
 Frequency:      1039.55                1077.19                1104.35
 Force Cnst:      1.5680                 1.5401                 1.9707
 Red. Mass:       2.4627                 2.2527                 2.7426
 IR Intens:       40.867                 10.885                  2.408
 Frequency:      1160.20                1242.07                1259.07
 Force Cnst:      1.3637                 1.9402                 1.2610
 Red. Mass:       1.7195                 2.1346                 1.3501
 IR Intens:      130.240                254.268                 30.405
 Frequency:      1314.62                1355.41                1378.98
 Force Cnst:      1.1882                 1.5754                 1.6008
 Red. Mass:       1.1669                 1.4554                 1.4288
 IR Intens:       31.655                 22.179                 23.693
 Frequency:      1434.72                1454.81                1458.79
 Force Cnst:      4.8156                 1.5963                 1.3449
 Red. Mass:       3.9707                 1.2801                 1.0726
 IR Intens:      397.614                 41.086                 22.001
 Frequency:      1466.20                1472.90                1502.88
 Force Cnst:      1.3934                 1.3511                 1.4759
 Red. Mass:       1.1001                 1.0570                 1.1090
 IR Intens:       19.358                  8.507                108.720
 Frequency:      1585.26                2193.61                3064.67
 Force Cnst:     15.2023                 3.1629                 5.7141
 Red. Mass:      10.2673                 1.1156                 1.0326
 IR Intens:     1255.333               3917.361                 22.268
 Frequency:      3065.04                3082.99                3105.29
 Force Cnst:      5.8775                 5.9310                 6.2512
 Red. Mass:       1.0619                 1.0591                 1.1003
 IR Intens:       25.387                 42.403                 10.206
 Frequency:      3136.42                3155.22                3162.63
 Force Cnst:      6.4072                 6.4779                 6.5142
 Red. Mass:       1.1055                 1.1044                 1.1054
 IR Intens:       36.178                 19.842                 32.671

 STANDARD THERMODYNAMIC QUANTITIES AT   298.15 K  AND     1.00 ATM

   This Molecule has  0 Imaginary Frequencies
   Zero point vibrational energy:       80.859 kcal/mol

   Atom    1 Element C  Has Mass   12.00000
   Atom    2 Element O  Has Mass   15.99491
   Atom    3 Element O  Has Mass   15.99491
   Atom    4 Element C  Has Mass   12.00000
   Atom    5 Element H  Has Mass    1.00783
   Atom    6 Element H  Has Mass    1.00783
   Atom    7 Element C  Has Mass   12.00000
   Atom    8 Element H  Has Mass    1.00783
   Atom    9 Element H  Has Mass    1.00783
   Atom   10 Element C  Has Mass   12.00000
   Atom   11 Element O  Has Mass   15.99491
   Atom   12 Element H  Has Mass    1.00783
   Atom   13 Element O  Has Mass   15.99491
   Atom   14 Element O  Has Mass   15.99491
   Atom   15 Element C  Has Mass   12.00000
   Atom   16 Element H  Has Mass    1.00783
   Atom   17 Element H  Has Mass    1.00783
   Atom   18 Element H  Has Mass    1.00783
   Molecular Mass:   148.037190 amu
   Principal axes and moments of inertia in amu*Bohr^2:
                             1           2           3
    Eigenvalues --      661.62759  3338.82492  3569.29756
          X              -0.51804     0.76997     0.37252
          Y              -0.37699    -0.59647     0.70859
          Z               0.76780     0.22665     0.59927
   Rotational Symmetry Number is   1
   The Molecule is an Asymmetric Top
   Translational Enthalpy:        0.889 kcal/mol
   Rotational Enthalpy:           0.889 kcal/mol
   Vibrational Enthalpy:         86.393 kcal/mol
   gas constant (RT):             0.592 kcal/mol
   Translational Entropy:        40.887  cal/mol.K
   Rotational Entropy:           30.445  cal/mol.K
   Vibrational Entropy:          38.581  cal/mol.K

   Total Enthalpy:               88.763 kcal/mol
   Total Entropy:               109.913  cal/mol.K

 Total job time:  66149.74s(wall), 931753.67s(cpu)
        *  Thank you very much for using Q-Chem.  Have a nice day.  *
