 Q-Chem 5.0, Q-Chem, Inc., Pleasanton, CA (2017)
 Q-Chem 5.0.2 for Intel X86 EM64T Linux

User input:
--------------------------------------------------------------
$molecule
-2 1
C        1.6714554994    1.7855928409    0.5922311814
O        2.6583202137    2.5594515595    0.3733577296
O        0.8193864905    2.0470765491    1.5353996997
C        1.4571169369    0.6070767591   -0.2395514131
H        0.3192956627    0.7628346426   -1.2154379317
H        2.3644334065    0.2962467814   -0.7610337968
C        0.6083479639   -0.5291574235    0.2993716226
H        1.0473430416   -1.4942533882    0.0201157988
H        0.4964348411   -0.5279284569    1.3900486687
C       -0.8157799913   -0.4670131120   -0.3570348236
O       -0.7074642270    0.3072071605   -1.4783229748
H       -0.5924488607    1.5477972536    1.1721459061
O       -1.7929893681    0.0722738648    0.5908059797
O       -1.5633506278    1.4545615271    0.8621673959
C       -1.3913540896   -1.8476648942   -0.6393272667
H       -2.3961903339   -1.7676581855   -1.0644564240
H       -0.7433536098   -2.3588874664   -1.3557952510
H       -1.4392046979   -2.4475550611    0.2753133913
$end

$rem
jobtype               freq
method                wb97x-v
basis                 def2-tzvpd
symmetry              off
sym_ignore            true
incdft                false
incfock               0
!scf_algorithm        diis_gdm
scf_convergence       8
thresh                14
!purecart             112
max_scf_cycles        1000
geom_opt_max_cycles   500
geom_opt_dmax         100
geom_opt_tol_gradient 10
solvent_method        pcm
ideriv                1
rpath_tol_displacement 1000
rpath_max_cycles      100
rpath_direction       1
!scf_guess            read
scf_guess             read
$end

$pcm
theory              cosmo
method              iswig
Radii               bondi
vdwScale            1.20
hpoints             110
heavypoints         110
$end

$solvent
dielectric 78.400000
$end

--------------------------------------------------------------

   17    -571.6856797911      7.09E-09 Convergence criterion met
 Total energy in the final basis set = -571.68567979
   15    -571.6856788341      6.50E-09 Convergence criterion met
 Total energy in the final basis set = -571.68567883
   15    -571.6856787365      4.81E-09 Convergence criterion met
 Total energy in the final basis set = -571.68567874
   14    -571.6856788009      9.31E-09 Convergence criterion met
 Total energy in the final basis set = -571.68567880
   15    -571.6856788702      8.29E-09 Convergence criterion met
 Total energy in the final basis set = -571.68567887
   14    -571.6856789412      9.04E-09 Convergence criterion met
 Total energy in the final basis set = -571.68567894
   15    -571.6856790084      7.91E-09 Convergence criterion met
 Total energy in the final basis set = -571.68567901
   15    -571.6856792212      5.95E-09 Convergence criterion met
 Total energy in the final basis set = -571.68567952
   17    -571.6856794461      1.02E-09 Convergence criterion met
 Total energy in the final basis set = -571.68567945
   17    -571.6856796457      1.99E-09 Convergence criterion met
 Total energy in the final basis set = -571.68567965
   17    -571.6856797717      1.83E-09 Convergence criterion met
 Total energy in the final basis set = -571.68567977
   17    -571.6856795923      1.86E-09 Convergence criterion met
 Total energy in the final basis set = -571.68567959
   17    -571.6856795099      1.13E-09 Convergence criterion met
 Total energy in the final basis set = -571.68567951
   17    -571.6856793816      2.43E-09 Convergence criterion met
 Total energy in the final basis set = -571.68567938
   17    -571.6856792992      7.45E-10 Convergence criterion met
 Total energy in the final basis set = -571.68567930

                    Orbital Energies (a.u.)
 --------------------------------------------------------------

 Alpha MOs
 -- Occupied --
-19.233 -19.215 -19.154 -19.130 -19.121 -10.334 -10.322 -10.242
-10.234 -10.190  -1.215  -1.122  -1.105  -1.028  -0.978  -0.864
 -0.834  -0.737  -0.669  -0.613  -0.582  -0.578  -0.552  -0.541
 -0.514  -0.505  -0.490  -0.487  -0.473  -0.466  -0.444  -0.428
 -0.401  -0.378  -0.359  -0.340  -0.335  -0.326  -0.312  -0.258

          Ground-State Mulliken Net Atomic Charges

     Atom                 Charge (a.u.)
  ----------------------------------------
      1 C                     0.288062
      2 O                    -0.761172
      3 O                    -0.785019
      4 C                    -0.659723
      5 H                     0.261714
      6 H                     0.248824
      7 C                    -0.315746
      8 H                     0.251775
      9 H                     0.207731
     10 C                     0.843847
     11 O                    -0.658794
     12 H                     0.376696
     13 O                    -0.267268
     14 O                    -0.481642
     15 C                    -1.359461
     16 H                     0.272936
     17 H                     0.286765
     18 H                     0.250473
  ----------------------------------------
  Sum of atomic charges =    -2.000000

                    Cartesian Multipole Moments
 -----------------------------------------------------------------
    Charge (ESU x 10^10)
                -9.6064
    Dipole Moment (Debye)
         X      -5.1694      Y     -16.9150      Z      -2.9339
       Tot      17.9289
    Quadrupole Moments (Debye-Ang)
        XX    -105.2306     XY     -22.8251     YY    -102.4820
        XZ      -4.5931     YZ     -11.2527     ZZ     -82.1172

             Standard Nuclear Orientation (Angstroms)
    I     Atom           X                Y                Z
 ----------------------------------------------------------------
    1      C       1.6714554994     1.7855928409     0.5922311814
    2      O       2.6583202137     2.5594515595     0.3733577296
    3      O       0.8193864905     2.0470765491     1.5353996997
    4      C       1.4571169369     0.6070767591    -0.2395514131
    5      H       0.3192956627     0.7628346426    -1.2154379317
    6      H       2.3644334065     0.2962467814    -0.7610337968
    7      C       0.6083479639    -0.5291574235     0.2993716226
    8      H       1.0473430416    -1.4942533882     0.0201157988
    9      H       0.4964348411    -0.5279284569     1.3900486687
   10      C      -0.8157799913    -0.4670131120    -0.3570348236
   11      O      -0.7074642270     0.3072071605    -1.4783229748
   12      H      -0.5924488607     1.5477972536     1.1721459061
   13      O      -1.7929893681     0.0722738648     0.5908059797
   14      O      -1.5633506278     1.4545615271     0.8621673959
   15      C      -1.3913540896    -1.8476648942    -0.6393272667
   16      H      -2.3961903339    -1.7676581855    -1.0644564240
   17      H      -0.7433536098    -2.3588874664    -1.3557952510
   18      H      -1.4392046979    -2.4475550611     0.2753133913
 ----------------------------------------------------------------

 Frequency:     -1137.80                  74.18                 114.06
 Force Cnst:      0.9010                 0.0244                 0.0552
 Red. Mass:       1.1813                 7.5164                 7.1963
 IR Intens:     5914.304                  1.124                  2.810
 Frequency:       156.67                 222.76                 236.22
 Force Cnst:      0.0881                 0.0513                 0.0632
 Red. Mass:       6.0902                 1.7556                 1.9218
 IR Intens:       17.405                  7.626                  7.875
 Frequency:       239.98                 313.39                 344.76
 Force Cnst:      0.1582                 0.2967                 0.1952
 Red. Mass:       4.6614                 5.1281                 2.7879
 IR Intens:       19.124                100.559                  9.077
 Frequency:       385.42                 431.34                 490.07
 Force Cnst:      0.4207                 0.3356                 0.6060
 Red. Mass:       4.8070                 3.0617                 4.2827
 IR Intens:        7.729                 10.609                  4.302
 Frequency:       575.24                 590.50                 653.75
 Force Cnst:      0.4200                 0.6264                 1.3345
 Red. Mass:       2.1545                 3.0489                 5.2995
 IR Intens:       89.495                 32.041                 27.273
 Frequency:       692.46                 731.90                 804.09
 Force Cnst:      0.9899                 1.4444                 2.0692
 Red. Mass:       3.5038                 4.5766                 5.4318
 IR Intens:      138.242                153.935                 36.089
 Frequency:       851.36                 866.85                 899.81
 Force Cnst:      1.1535                 1.3914                 1.5581
 Red. Mass:       2.7012                 3.1428                 3.2661
 IR Intens:       53.164                 10.718                 62.681
 Frequency:       966.13                 977.94                1000.70
 Force Cnst:      1.0836                 0.7347                 1.1814
 Red. Mass:       1.9703                 1.3039                 2.0023
 IR Intens:       59.327                217.142                 19.203
 Frequency:      1048.31                1093.93                1111.29
 Force Cnst:      2.8582                 1.2939                 1.4553
 Red. Mass:       4.4143                 1.8351                 2.0000
 IR Intens:       34.454                117.134                 88.800
 Frequency:      1199.19                1218.99                1242.38
 Force Cnst:      1.9398                 1.0964                 1.3583
 Red. Mass:       2.2894                 1.2523                 1.4936
 IR Intens:       41.920                 23.321                261.975
 Frequency:      1258.78                1310.65                1338.39
 Force Cnst:      2.0849                 1.7764                 2.3411
 Red. Mass:       2.2332                 1.7552                 2.2182
 IR Intens:      182.088                 98.972                107.183
 Frequency:      1396.91                1401.18                1452.97
 Force Cnst:      2.2761                 2.6637                 1.3944
 Red. Mass:       1.9798                 2.3027                 1.1210
 IR Intens:      514.528                553.662                 38.203
 Frequency:      1468.24                1473.44                1496.83
 Force Cnst:      1.3413                 1.3453                 6.8642
 Red. Mass:       1.0560                 1.0517                 5.1999
 IR Intens:        4.262                  6.909                788.506
 Frequency:      1569.57                1859.67                2708.91
 Force Cnst:      1.6701                 2.1573                 4.7403
 Red. Mass:       1.1506                 1.0587                 1.0964
 IR Intens:      189.618                128.420               2332.275
 Frequency:      3040.44                3051.33                3084.60
 Force Cnst:      5.7731                 5.6846                 6.1810
 Red. Mass:       1.0600                 1.0363                 1.1026
 IR Intens:       80.811                 44.426                 29.055
 Frequency:      3109.01                3125.21                3138.61
 Force Cnst:      6.1946                 6.3464                 6.4008
 Red. Mass:       1.0877                 1.1029                 1.1028
 IR Intens:      105.527                 47.619                 45.183

 STANDARD THERMODYNAMIC QUANTITIES AT   298.15 K  AND     1.00 ATM

   This Molecule has  1 Imaginary Frequencies
   Zero point vibrational energy:       81.226 kcal/mol

   Atom    1 Element C  Has Mass   12.00000
   Atom    2 Element O  Has Mass   15.99491
   Atom    3 Element O  Has Mass   15.99491
   Atom    4 Element C  Has Mass   12.00000
   Atom    5 Element H  Has Mass    1.00783
   Atom    6 Element H  Has Mass    1.00783
   Atom    7 Element C  Has Mass   12.00000
   Atom    8 Element H  Has Mass    1.00783
   Atom    9 Element H  Has Mass    1.00783
   Atom   10 Element C  Has Mass   12.00000
   Atom   11 Element O  Has Mass   15.99491
   Atom   12 Element H  Has Mass    1.00783
   Atom   13 Element O  Has Mass   15.99491
   Atom   14 Element O  Has Mass   15.99491
   Atom   15 Element C  Has Mass   12.00000
   Atom   16 Element H  Has Mass    1.00783
   Atom   17 Element H  Has Mass    1.00783
   Atom   18 Element H  Has Mass    1.00783
   Molecular Mass:   148.037190 amu
   Principal axes and moments of inertia in amu*Bohr^2:
                             1           2           3
    Eigenvalues --      739.02643  1961.79443  2314.72287
          X               0.73608     0.63029     0.24682
          Y               0.63779    -0.52365    -0.56481
          Z               0.22675    -0.57316     0.78744
   Rotational Symmetry Number is   1
   The Molecule is an Asymmetric Top
   Translational Enthalpy:        0.889 kcal/mol
   Rotational Enthalpy:           0.889 kcal/mol
   Vibrational Enthalpy:         85.324 kcal/mol
   gas constant (RT):             0.592 kcal/mol
   Translational Entropy:        40.887  cal/mol.K
   Rotational Entropy:           29.596  cal/mol.K
   Vibrational Entropy:          23.872  cal/mol.K

   Total Enthalpy:               87.694 kcal/mol
   Total Entropy:                94.356  cal/mol.K

 Total job time:  41348.01s(wall), 571161.94s(cpu)
        *  Thank you very much for using Q-Chem.  Have a nice day.  *
