 Q-Chem 5.0, Q-Chem, Inc., Pleasanton, CA (2017)
 Q-Chem 5.0.2 for Intel X86 EM64T Linux

User input:
--------------------------------------------------------------
$molecule
-2 1
C       -0.1913007151    0.9678648696   -1.0016724892
C        0.3002199399    1.8167807470   -2.1860951739
O       -0.3088372302    2.9061062585   -2.3696339312
O        1.2455279317    1.3829249517   -2.8923184881
C        0.6456840342   -0.2686519000   -0.7049548039
H       -1.2271001549    0.6908525875   -1.2290726644
H       -0.2305874273    1.6073369163   -0.1145401781
C        0.1991847626   -1.1160503328    0.4646897284
H        1.6924166879   -0.0038155447   -0.5390335339
H        0.6272034754   -0.9426046177   -1.5736917455
C       -1.2776111215   -1.2901983390    0.7053908458
H       -1.7920816356   -0.3313672503    0.7604819543
H       -1.4413191056   -1.8594829285    1.6216043660
H       -1.6953182956   -1.8468093694   -0.1435067340
O        1.0126791619   -1.8114368972    1.0679081474
O        0.4061873317    0.8764524956    2.1617782246
O        0.9313390844    0.0223936958    3.2292044000
H        1.1036949265   -0.8003179153    2.7434685522
$end

$rem
jobtype               freq
method                wb97x-v
basis                 def2-tzvpd
symmetry              off
sym_ignore            true
incdft                false
incfock               0
!scf_algorithm        diis_gdm
scf_convergence       8
thresh                14
!purecart             112
max_scf_cycles        1000
geom_opt_max_cycles   500
geom_opt_dmax         100
geom_opt_tol_gradient 10
solvent_method        pcm
ideriv                1
rpath_tol_displacement 1000
rpath_max_cycles      100
rpath_direction       1
!scf_guess            read
scf_guess             read
$end

$pcm
theory              cosmo
method              iswig
Radii               bondi
vdwScale            1.20
hpoints             110
heavypoints         110
$end

$solvent
dielectric 78.400000
$end

--------------------------------------------------------------

   17    -571.7097092228      9.77E-09 Convergence criterion met
 Total energy in the final basis set = -571.70970922
   16    -571.7097082670      2.29E-09 Convergence criterion met
 Total energy in the final basis set = -571.70970827
   15    -571.7097082319      6.77E-09 Convergence criterion met
 Total energy in the final basis set = -571.70970823
   15    -571.7097082871      7.09E-09 Convergence criterion met
 Total energy in the final basis set = -571.70970829
   15    -571.7097082986      6.59E-09 Convergence criterion met
 Total energy in the final basis set = -571.70970830
   15    -571.7097082855      7.06E-09 Convergence criterion met
 Total energy in the final basis set = -571.70970829
   15    -571.7097083039      6.61E-09 Convergence criterion met
 Total energy in the final basis set = -571.70970830
   15    -571.7097082588      7.63E-09 Convergence criterion met
 Total energy in the final basis set = -571.70970868
   15    -571.7097086269      7.12E-09 Convergence criterion met
 Total energy in the final basis set = -571.70970863
   16    -571.7097091110      7.66E-09 Convergence criterion met
 Total energy in the final basis set = -571.70970911
   17    -571.7097092374      1.73E-09 Convergence criterion met
 Total energy in the final basis set = -571.70970924
   17    -571.7097085947      1.57E-09 Convergence criterion met
 Total energy in the final basis set = -571.70970859
   16    -571.7097085591      2.85E-09 Convergence criterion met
 Total energy in the final basis set = -571.70970856
   16    -571.7097089613      7.66E-09 Convergence criterion met
 Total energy in the final basis set = -571.70970896
   16    -571.7097088960      8.67E-09 Convergence criterion met
 Total energy in the final basis set = -571.70970890

                    Orbital Energies (a.u.)
 --------------------------------------------------------------

 Alpha MOs
 -- Occupied --
-19.195 -19.188 -19.140 -19.137 -19.133 -10.354 -10.341 -10.255
-10.253 -10.248  -1.161  -1.143  -1.130  -1.048  -0.911  -0.872
 -0.848  -0.774  -0.635  -0.609  -0.582  -0.567  -0.559  -0.538
 -0.528  -0.514  -0.509  -0.486  -0.476  -0.464  -0.447  -0.436
 -0.433  -0.421  -0.357  -0.346  -0.334  -0.326  -0.297  -0.268

          Ground-State Mulliken Net Atomic Charges

     Atom                 Charge (a.u.)
  ----------------------------------------
      1 C                    -0.147014
      2 C                    -0.058734
      3 O                    -0.711019
      4 O                    -0.695048
      5 C                     0.172656
      6 H                     0.257333
      7 H                     0.115432
      8 C                     0.366849
      9 H                     0.173963
     10 H                     0.282547
     11 C                    -0.981381
     12 H                     0.257094
     13 H                     0.218039
     14 H                     0.310305
     15 O                    -0.668277
     16 O                    -0.733275
     17 O                    -0.463882
     18 H                     0.304414
  ----------------------------------------
  Sum of atomic charges =    -2.000000

                    Cartesian Multipole Moments
 -----------------------------------------------------------------
    Charge (ESU x 10^10)
                -9.6064
    Dipole Moment (Debye)
         X      -7.6691      Y     -13.6657      Z      -0.1771
       Tot      15.6715
    Quadrupole Moments (Debye-Ang)
        XX     -74.0152     XY       1.3702     YY    -104.5173
        XZ       0.0607     YZ      24.8864     ZZ    -140.3239

             Standard Nuclear Orientation (Angstroms)
    I     Atom           X                Y                Z
 ----------------------------------------------------------------
    1      C      -0.1913007151     0.9678648696    -1.0016724892
    2      C       0.3002199399     1.8167807470    -2.1860951739
    3      O      -0.3088372302     2.9061062585    -2.3696339312
    4      O       1.2455279317     1.3829249517    -2.8923184881
    5      C       0.6456840342    -0.2686519000    -0.7049548039
    6      H      -1.2271001549     0.6908525875    -1.2290726644
    7      H      -0.2305874273     1.6073369163    -0.1145401781
    8      C       0.1991847626    -1.1160503328     0.4646897284
    9      H       1.6924166879    -0.0038155447    -0.5390335339
   10      H       0.6272034754    -0.9426046177    -1.5736917455
   11      C      -1.2776111215    -1.2901983390     0.7053908458
   12      H      -1.7920816356    -0.3313672503     0.7604819543
   13      H      -1.4413191056    -1.8594829285     1.6216043660
   14      H      -1.6953182956    -1.8468093694    -0.1435067340
   15      O       1.0126791619    -1.8114368972     1.0679081474
   16      O       0.4061873317     0.8764524956     2.1617782246
   17      O       0.9313390844     0.0223936958     3.2292044000
   18      H       1.1036949265    -0.8003179153     2.7434685522
 ----------------------------------------------------------------

 Frequency:       -68.42                  28.12                  41.15
 Force Cnst:      0.0131                 0.0063                 0.0089
 Red. Mass:       4.7368                13.4707                 8.9661
 IR Intens:       94.966                  4.210                 16.647
 Frequency:        85.50                 107.11                 129.27
 Force Cnst:      0.0112                 0.0169                 0.0393
 Red. Mass:       2.5966                 2.4990                 3.9935
 IR Intens:        6.341                 19.590                  1.083
 Frequency:       157.12                 179.23                 182.78
 Force Cnst:      0.0488                 0.1045                 0.0365
 Red. Mass:       3.3529                 5.5234                 1.8563
 IR Intens:       15.963                 19.214                  2.106
 Frequency:       228.94                 263.54                 372.31
 Force Cnst:      0.1577                 0.1763                 0.0885
 Red. Mass:       5.1082                 4.3087                 1.0834
 IR Intens:       31.289                 11.681                128.258
 Frequency:       403.65                 452.65                 522.94
 Force Cnst:      0.5550                 0.3723                 0.4154
 Red. Mass:       5.7812                 3.0842                 2.5779
 IR Intens:        1.973                 23.747                 20.718
 Frequency:       574.11                 600.48                 690.69
 Force Cnst:      0.6413                 0.4374                 1.7626
 Red. Mass:       3.3026                 2.0588                 6.2710
 IR Intens:       35.219                 13.039                 41.078
 Frequency:       766.27                 826.94                 925.50
 Force Cnst:      0.5495                 1.2967                 1.8339
 Red. Mass:       1.5884                 3.2183                 3.6340
 IR Intens:       21.267                  9.866                 38.080
 Frequency:       928.52                 931.50                1022.40
 Force Cnst:      2.5144                 1.1641                 0.9834
 Red. Mass:       4.9499                 2.2771                 1.5967
 IR Intens:        7.740                 27.018                 10.805
 Frequency:      1076.54                1110.02                1182.25
 Force Cnst:      1.4660                 1.9819                 1.0937
 Red. Mass:       2.1470                 2.7301                 1.3281
 IR Intens:       19.041                  2.718                 16.371
 Frequency:      1255.93                1268.92                1308.66
 Force Cnst:      1.2639                 2.1856                 1.1723
 Red. Mass:       1.3600                 2.3039                 1.1618
 IR Intens:       40.952                 99.592                  9.020
 Frequency:      1322.12                1376.75                1393.68
 Force Cnst:      1.1302                 2.0633                 1.8515
 Red. Mass:       1.0974                 1.8476                 1.6178
 IR Intens:      123.101                 57.108                145.477
 Frequency:      1433.96                1442.99                1444.82
 Force Cnst:      2.0365                 1.6897                 1.6255
 Red. Mass:       1.6810                 1.3773                 1.3216
 IR Intens:      133.845                160.954                 60.021
 Frequency:      1460.09                1470.58                1583.09
 Force Cnst:      1.5262                 1.3640                14.8560
 Red. Mass:       1.2151                 1.0705                10.0610
 IR Intens:       48.382                  6.023               1248.166
 Frequency:      1717.99                3042.18                3053.71
 Force Cnst:     16.5723                 5.8221                 5.7432
 Red. Mass:       9.5300                 1.0677                 1.0453
 IR Intens:      430.761                 20.084                  9.274
 Frequency:      3066.09                3110.17                3127.33
 Force Cnst:      5.8890                 6.2472                 6.3212
 Red. Mass:       1.0632                 1.0961                 1.0970
 IR Intens:       28.455                 10.774                 40.338
 Frequency:      3138.61                3182.42                3685.58
 Force Cnst:      6.3324                 6.5849                 8.5473
 Red. Mass:       1.0910                 1.1035                 1.0680
 IR Intens:       18.238                 14.866                 94.693

 STANDARD THERMODYNAMIC QUANTITIES AT   298.15 K  AND     1.00 ATM

   This Molecule has  1 Imaginary Frequencies
   Zero point vibrational energy:       82.451 kcal/mol

   Atom    1 Element C  Has Mass   12.00000
   Atom    2 Element C  Has Mass   12.00000
   Atom    3 Element O  Has Mass   15.99491
   Atom    4 Element O  Has Mass   15.99491
   Atom    5 Element C  Has Mass   12.00000
   Atom    6 Element H  Has Mass    1.00783
   Atom    7 Element H  Has Mass    1.00783
   Atom    8 Element C  Has Mass   12.00000
   Atom    9 Element H  Has Mass    1.00783
   Atom   10 Element H  Has Mass    1.00783
   Atom   11 Element C  Has Mass   12.00000
   Atom   12 Element H  Has Mass    1.00783
   Atom   13 Element H  Has Mass    1.00783
   Atom   14 Element H  Has Mass    1.00783
   Atom   15 Element O  Has Mass   15.99491
   Atom   16 Element O  Has Mass   15.99491
   Atom   17 Element O  Has Mass   15.99491
   Atom   18 Element H  Has Mass    1.00783
   Molecular Mass:   148.037190 amu
   Principal axes and moments of inertia in amu*Bohr^2:
                             1           2           3
    Eigenvalues --      888.71019  2909.05519  3188.43255
          X               0.02337     0.06928     0.99732
          Y              -0.51016     0.85875    -0.04770
          Z               0.85976     0.50768    -0.05541
   Rotational Symmetry Number is   1
   The Molecule is an Asymmetric Top
   Translational Enthalpy:        0.889 kcal/mol
   Rotational Enthalpy:           0.889 kcal/mol
   Vibrational Enthalpy:         87.952 kcal/mol
   gas constant (RT):             0.592 kcal/mol
   Translational Entropy:        40.887  cal/mol.K
   Rotational Entropy:           30.489  cal/mol.K
   Vibrational Entropy:          37.912  cal/mol.K

   Total Enthalpy:               90.322 kcal/mol
   Total Entropy:               109.288  cal/mol.K

 Total job time:  39629.41s(wall), 522716.26s(cpu)
        *  Thank you very much for using Q-Chem.  Have a nice day.  *
