 Q-Chem 5.0, Q-Chem, Inc., Pleasanton, CA (2017)
 Q-Chem 5.0.2 for Intel X86 EM64T Linux

User input:
--------------------------------------------------------------
$molecule
-3 1
C        0.6136923152    0.5039571774   -3.9959078415
O        0.1857625435    1.3693561480   -4.8072526258
O        1.2554519540   -0.5317763248   -4.3063709525
C        0.2978027754    0.7641807153   -2.5112824322
H       -0.7942107703    0.7840444763   -2.4271192279
H        0.6392975887    1.7762860362   -2.2756326515
C        0.9000877845   -0.2406195278   -1.5484230284
H        1.9899695622   -0.2548376154   -1.6223579763
H        0.5326398300   -1.2514731317   -1.7405757791
C        0.5832758011   -0.0324149680    0.0381463778
C       -0.9719949514   -0.0656541125    0.2021625311
H       -1.4578834632    0.7492814786   -0.3377102715
H       -1.1982127960    0.0264528665    1.2680415049
H       -1.3489402956   -1.0256864991   -0.1597359806
O        1.1673652399   -1.0273995684    0.7152613804
O        1.0282510155    1.2189228852    0.2539013107
H        1.0697637834   -0.7863690983    2.3622075282
O        1.0420136800   -0.6785871995    3.3556721495
H        0.1835758568   -0.2398361816    3.5602146392
O       -1.3193486578    0.6014714420    3.9881941370
O       -1.0741572383    1.8523702348    3.6406162740
$end

$rem
jobtype               freq
method                wb97x-v
basis                 def2-tzvpd
symmetry              off
sym_ignore            true
incdft                false
incfock               0
scf_guess             read
scf_convergence       8
thresh                14
unrestricted          true
!purecart             112
max_scf_cycles        1000
geom_opt_max_cycles   500
geom_opt_dmax         100
geom_opt_tol_gradient 10
solvent_method        pcm
ideriv                1
rpath_tol_displacement 1000
rpath_max_cycles      100
rpath_direction       1
$end

$pcm
theory              cosmo
method              iswig
Radii               bondi
vdwScale            1.20
hpoints             110
heavypoints         110
$end

$solvent
dielectric 78.400000
$end

--------------------------------------------------------------

   24    -722.8362561459      8.37E-09 Convergence criterion met
 Total energy in the final basis set = -722.83625615
   24    -722.8362554319      8.80E-09 Convergence criterion met
 Total energy in the final basis set = -722.83625543
   26    -722.8362554399      9.71E-09 Convergence criterion met
 Total energy in the final basis set = -722.83625544
   27    -722.8362549636      9.85E-09 Convergence criterion met
 Total energy in the final basis set = -722.83625496
   26    -722.8362549343      9.86E-09 Convergence criterion met
 Total energy in the final basis set = -722.83625493
   27    -722.8362550702      9.88E-09 Convergence criterion met
 Total energy in the final basis set = -722.83625507
   26    -722.8362550587      9.82E-09 Convergence criterion met
 Total energy in the final basis set = -722.83625506
   27    -722.8362559690      9.89E-09 Convergence criterion met
 Total energy in the final basis set = -722.83625609
   23    -722.8362560634      8.97E-09 Convergence criterion met
 Total energy in the final basis set = -722.83625606
   24    -722.8362561170      7.64E-09 Convergence criterion met
 Total energy in the final basis set = -722.83625612
   27    -722.8362560973      9.83E-09 Convergence criterion met
 Total energy in the final basis set = -722.83625610
   24    -722.8362553601      9.67E-09 Convergence criterion met
 Total energy in the final basis set = -722.83625536
   28    -722.8362553245      9.70E-09 Convergence criterion met
 Total energy in the final basis set = -722.83625532
   24    -722.8362560734      8.69E-09 Convergence criterion met
 Total energy in the final basis set = -722.83625607
   29    -722.8362560884      8.74E-09 Convergence criterion met
 Total energy in the final basis set = -722.83625609

                    Orbital Energies (a.u.)
 --------------------------------------------------------------

 Alpha MOs
 -- Occupied --
-19.190 -19.189 -19.186 -19.156 -19.139 -19.136 -19.110 -10.340
-10.332 -10.261 -10.244 -10.244  -1.174  -1.142  -1.134  -1.075
 -1.047  -1.025  -0.888  -0.825  -0.802  -0.757  -0.629  -0.604
 -0.590  -0.568  -0.558  -0.534  -0.531  -0.510  -0.507  -0.491
 -0.483  -0.481  -0.471  -0.458  -0.445  -0.442  -0.423  -0.419
 -0.384  -0.378  -0.361  -0.346  -0.341  -0.330  -0.318  -0.295
 -0.258

 Beta MOs
 -- Occupied --
-19.202 -19.201 -19.173 -19.156 -19.139 -19.136 -19.109 -10.340
-10.333 -10.258 -10.244 -10.242  -1.203  -1.142  -1.113  -1.074
 -1.047  -1.008  -0.882  -0.847  -0.818  -0.748  -0.616  -0.603
 -0.588  -0.564  -0.546  -0.530  -0.522  -0.517  -0.508  -0.504
 -0.502  -0.485  -0.477  -0.469  -0.450  -0.446  -0.428  -0.421
 -0.383  -0.346  -0.345  -0.338  -0.328  -0.313  -0.312  -0.300
 -0.274

          Ground-State Mulliken Net Atomic Charges

     Atom                 Charge (a.u.)    Spin (a.u.)
  --------------------------------------------------------
      1 C                     0.003757       0.005635
      2 O                    -0.711739       0.003195
      3 O                    -0.692084       0.000027
      4 C                    -0.207499       0.012706
      5 H                     0.187598       0.002482
      6 H                     0.221214       0.003391
      7 C                    -0.451587       0.174058
      8 H                     0.280246      -0.001636
      9 H                     0.238504       0.009113
     10 C                     0.983978      -0.073024
     11 C                    -0.868555       0.134504
     12 H                     0.268640      -0.003701
     13 H                     0.089296      -0.008963
     14 H                     0.220235      -0.000954
     15 O                    -0.942583       0.087490
     16 O                    -0.574159       0.651304
     17 H                     0.325671       0.003037
     18 O                    -0.714486       0.000581
     19 H                     0.292698       0.000533
     20 O                    -0.494830      -0.477719
     21 O                    -0.454316      -0.522059
  --------------------------------------------------------
  Sum of atomic charges =    -3.000000

                    Cartesian Multipole Moments
 -----------------------------------------------------------------
    Charge (ESU x 10^10)
               -14.4096
    Dipole Moment (Debye)
         X      -7.1799      Y      -5.2544      Z      -1.6333
       Tot       9.0459
    Quadrupole Moments (Debye-Ang)
        XX    -101.9750     XY      12.5420     YY    -106.8491
        XZ      23.0553     YZ      -1.4479     ZZ    -278.1424

             Standard Nuclear Orientation (Angstroms)
    I     Atom           X                Y                Z
 ----------------------------------------------------------------
    1      C       0.6136923152     0.5039571774    -3.9959078415
    2      O       0.1857625435     1.3693561480    -4.8072526258
    3      O       1.2554519540    -0.5317763248    -4.3063709525
    4      C       0.2978027754     0.7641807153    -2.5112824322
    5      H      -0.7942107703     0.7840444763    -2.4271192279
    6      H       0.6392975887     1.7762860362    -2.2756326515
    7      C       0.9000877845    -0.2406195278    -1.5484230284
    8      H       1.9899695622    -0.2548376154    -1.6223579763
    9      H       0.5326398300    -1.2514731317    -1.7405757791
   10      C       0.5832758011    -0.0324149680     0.0381463778
   11      C      -0.9719949514    -0.0656541125     0.2021625311
   12      H      -1.4578834632     0.7492814786    -0.3377102715
   13      H      -1.1982127960     0.0264528665     1.2680415049
   14      H      -1.3489402956    -1.0256864991    -0.1597359806
   15      O       1.1673652399    -1.0273995684     0.7152613804
   16      O       1.0282510155     1.2189228852     0.2539013107
   17      H       1.0697637834    -0.7863690983     2.3622075282
   18      O       1.0420136800    -0.6785871995     3.3556721495
   19      H       0.1835758568    -0.2398361816     3.5602146392
   20      O      -1.3193486578     0.6014714420     3.9881941370
   21      O      -1.0741572383     1.8523702348     3.6406162740
 ----------------------------------------------------------------

 Frequency:        24.80                  35.45                  38.33
 Force Cnst:      0.0031                 0.0060                 0.0108
 Red. Mass:       8.5331                 8.1509                12.4657
 IR Intens:        5.636                  8.703                  1.592
 Frequency:        51.11                  53.79                  64.72
 Force Cnst:      0.0122                 0.0182                 0.0072
 Red. Mass:       7.9226                10.6797                 2.9325
 IR Intens:        5.240                  3.770                 18.359
 Frequency:        77.74                 120.57                 124.04
 Force Cnst:      0.0440                 0.0643                 0.0225
 Red. Mass:      12.3612                 7.5111                 2.4824
 IR Intens:        1.768                  7.348                  4.819
 Frequency:       140.22                 194.69                 224.44
 Force Cnst:      0.0924                 0.1431                 0.2776
 Red. Mass:       7.9753                 6.4075                 9.3547
 IR Intens:        8.257                 13.746                 25.002
 Frequency:       233.20                 266.23                 280.97
 Force Cnst:      0.1785                 0.0531                 0.1724
 Red. Mass:       5.5713                 1.2710                 3.7073
 IR Intens:        5.749                  7.563                  1.781
 Frequency:       320.39                 391.96                 451.88
 Force Cnst:      0.1975                 0.7945                 0.4127
 Red. Mass:       3.2652                 8.7767                 3.4302
 IR Intens:      101.169                 95.901                  9.529
 Frequency:       494.77                 590.31                 603.60
 Force Cnst:      0.8074                 0.4070                 1.2520
 Red. Mass:       5.5978                 1.9823                 5.8325
 IR Intens:      150.532                 21.647                 49.023
 Frequency:       609.36                 707.65                 727.81
 Force Cnst:      1.3413                 1.5667                 0.3302
 Red. Mass:       6.1310                 5.3100                 1.0580
 IR Intens:      159.073                 28.532                105.872
 Frequency:       781.12                 789.23                 816.46
 Force Cnst:      0.5319                 0.3860                 1.5726
 Red. Mass:       1.4797                 1.0517                 4.0041
 IR Intens:       12.668                179.085                  8.718
 Frequency:       891.13                 925.27                 965.07
 Force Cnst:      0.5132                 2.8361                 0.7677
 Red. Mass:       1.0968                 5.6225                 1.3991
 IR Intens:       49.980                 34.804                  5.113
 Frequency:       975.13                1024.64                1032.02
 Force Cnst:      1.1421                 1.4651                 1.2039
 Red. Mass:       2.0386                 2.3685                 1.9184
 IR Intens:        1.555                158.524                 63.374
 Frequency:      1100.90                1155.66                1206.01
 Force Cnst:      2.0297                 0.9954                 1.5317
 Red. Mass:       2.8424                 1.2651                 1.7875
 IR Intens:        2.289                 25.660                353.977
 Frequency:      1262.43                1282.68                1297.38
 Force Cnst:      2.4826                15.4975                 1.1479
 Red. Mass:       2.6439                15.9872                 1.1575
 IR Intens:      186.339                  0.918                  1.892
 Frequency:      1337.58                1360.56                1425.24
 Force Cnst:      1.7067                 1.3676                 8.0672
 Red. Mass:       1.6191                 1.2539                 6.7406
 IR Intens:       41.427                 15.902                474.130
 Frequency:      1456.12                1464.61                1467.37
 Force Cnst:      1.4805                 1.3580                 1.3819
 Red. Mass:       1.1851                 1.0745                 1.0893
 IR Intens:       28.659                  5.591                  4.269
 Frequency:      1479.01                1584.24                1646.16
 Force Cnst:      1.3685                15.0594                 1.6992
 Red. Mass:       1.0618                10.1839                 1.0643
 IR Intens:       11.509               1279.597                 86.806
 Frequency:      3055.50                3071.67                3072.83
 Force Cnst:      5.6810                 5.9037                 5.9798
 Red. Mass:       1.0328                 1.0620                 1.0749
 IR Intens:       40.461                 48.932               1920.950
 Frequency:      3083.59                3112.55                3140.20
 Force Cnst:      5.9318                 6.2794                 6.4188
 Red. Mass:       1.0588                 1.1001                 1.1048
 IR Intens:      182.848                 10.299                 18.475
 Frequency:      3144.00                3150.99                3372.07
 Force Cnst:      6.4447                 6.4582                 7.1714
 Red. Mass:       1.1066                 1.1040                 1.0704
 IR Intens:       57.749                 36.178               1198.347

 STANDARD THERMODYNAMIC QUANTITIES AT   298.15 K  AND     1.00 ATM

   This Molecule has  0 Imaginary Frequencies
   Zero point vibrational energy:       91.146 kcal/mol

   Atom    1 Element C  Has Mass   12.00000
   Atom    2 Element O  Has Mass   15.99491
   Atom    3 Element O  Has Mass   15.99491
   Atom    4 Element C  Has Mass   12.00000
   Atom    5 Element H  Has Mass    1.00783
   Atom    6 Element H  Has Mass    1.00783
   Atom    7 Element C  Has Mass   12.00000
   Atom    8 Element H  Has Mass    1.00783
   Atom    9 Element H  Has Mass    1.00783
   Atom   10 Element C  Has Mass   12.00000
   Atom   11 Element C  Has Mass   12.00000
   Atom   12 Element H  Has Mass    1.00783
   Atom   13 Element H  Has Mass    1.00783
   Atom   14 Element H  Has Mass    1.00783
   Atom   15 Element O  Has Mass   15.99491
   Atom   16 Element O  Has Mass   15.99491
   Atom   17 Element H  Has Mass    1.00783
   Atom   18 Element O  Has Mass   15.99491
   Atom   19 Element H  Has Mass    1.00783
   Atom   20 Element O  Has Mass   15.99491
   Atom   21 Element O  Has Mass   15.99491
   Molecular Mass:   181.034840 amu
   Principal axes and moments of inertia in amu*Bohr^2:
                             1           2           3
    Eigenvalues --      958.27859  6187.54931  6721.51043
          X              -0.14244    -0.64901     0.74733
          Y               0.00737     0.75431     0.65648
          Z               0.98978    -0.09902     0.10266
   Rotational Symmetry Number is   1
   The Molecule is an Asymmetric Top
   Translational Enthalpy:        0.889 kcal/mol
   Rotational Enthalpy:           0.889 kcal/mol
   Vibrational Enthalpy:         99.272 kcal/mol
   gas constant (RT):             0.592 kcal/mol
   Translational Entropy:        41.487  cal/mol.K
   Rotational Entropy:           32.055  cal/mol.K
   Vibrational Entropy:          60.119  cal/mol.K

   Total Enthalpy:              101.642 kcal/mol
   Total Entropy:               133.661  cal/mol.K

 Total job time:  114579.18s(wall), 1595395.32s(cpu)
        *  Thank you very much for using Q-Chem.  Have a nice day.  *
