 Q-Chem 5.0, Q-Chem, Inc., Pleasanton, CA (2017)
 Q-Chem 5.0.2 for Intel X86 EM64T Linux

User input:
--------------------------------------------------------------
$molecule
-3 1
C        0.6381980000    0.5123416232   -4.0586647825
O        0.2212668836    1.3843063105   -4.8658846195
O        1.2700423394   -0.5298799298   -4.3664933623
C        0.3229114265    0.7725954613   -2.5700708610
H       -0.7677171347    0.8234385484   -2.4879159378
H        0.7007147713    1.7679059994   -2.3210138847
C        0.8932718065   -0.2579578626   -1.6321983513
H        1.9817546330   -0.2865321113   -1.6272830667
H        0.4798647552   -1.2570943399   -1.7656600979
C        0.5326525712    0.0155636409    0.1020296960
C       -1.0195480600   -0.0775633749    0.1434638976
H       -1.4890219698    0.7318856319   -0.4184782495
H       -1.3152608767    0.0063822192    1.1944115106
H       -1.3600612900   -1.0423009190   -0.2400765223
O        1.1231090672   -1.0021914088    0.6976099532
O        0.9925269336    1.2315213053    0.2485195574
H        1.0761129082   -0.7725570247    2.4054629085
O        1.0514041101   -0.6679491423    3.3898450945
H        0.1880338572   -0.2326693310    3.5923686091
O       -1.3083921039    0.5866075320    3.9940225971
O       -1.0691283943    1.8413943303    3.6567128027
$end

$rem
jobtype               freq
method                wb97x-v
basis                 def2-tzvpd
symmetry              off
sym_ignore            true
incdft                false
incfock               0
scf_guess             read
scf_algorithm         diis_gdm
scf_convergence       8
thresh                14
unrestricted          true
!purecart             112
max_scf_cycles        1000
geom_opt_max_cycles   500
geom_opt_dmax         100
geom_opt_tol_gradient 10
solvent_method        pcm
ideriv                1
rpath_tol_displacement 1000
rpath_max_cycles      100
rpath_direction       1
$end

$pcm
theory              cosmo
method              iswig
Radii               bondi
vdwScale            1.20
hpoints             110
heavypoints         110
$end

$solvent
dielectric 78.400000
$end

--------------------------------------------------------------

   35    -722.8355840485      7.41E-09 Convergence criterion met
 Total energy in the final basis set = -722.83558405
   35    -722.8355833576      6.84E-09 Convergence criterion met
 Total energy in the final basis set = -722.83558336
   35    -722.8355833485      8.38E-09 Convergence criterion met
 Total energy in the final basis set = -722.83558335
   35    -722.8355828463      7.62E-09 Convergence criterion met
 Total energy in the final basis set = -722.83558285
   35    -722.8355828415      5.48E-09 Convergence criterion met
 Total energy in the final basis set = -722.83558284
   35    -722.8355829896      8.78E-09 Convergence criterion met
 Total energy in the final basis set = -722.83558299
   35    -722.8355829883      6.26E-09 Convergence criterion met
 Total energy in the final basis set = -722.83558299
   35    -722.8355838678      7.90E-09 Convergence criterion met
 Total energy in the final basis set = -722.83558398
   36    -722.8355839824      6.24E-09 Convergence criterion met
 Total energy in the final basis set = -722.83558398
   35    -722.8355840140      5.95E-09 Convergence criterion met
 Total energy in the final basis set = -722.83558401
   35    -722.8355840111      7.04E-09 Convergence criterion met
 Total energy in the final basis set = -722.83558401
   35    -722.8355832430      7.39E-09 Convergence criterion met
 Total energy in the final basis set = -722.83558324
   35    -722.8355832386      7.63E-09 Convergence criterion met
 Total energy in the final basis set = -722.83558324
   35    -722.8355839901      8.04E-09 Convergence criterion met
 Total energy in the final basis set = -722.83558399
   35    -722.8355839869      6.47E-09 Convergence criterion met
 Total energy in the final basis set = -722.83558399

                    Orbital Energies (a.u.)
 --------------------------------------------------------------

 Alpha MOs
 -- Occupied --
-19.191 -19.189 -19.161 -19.150 -19.141 -19.138 -19.122 -10.342
-10.339 -10.274 -10.247 -10.241  -1.175  -1.144  -1.128  -1.080
 -1.050  -1.029  -0.889  -0.826  -0.803  -0.751  -0.622  -0.606
 -0.592  -0.569  -0.555  -0.534  -0.527  -0.512  -0.511  -0.490
 -0.488  -0.481  -0.471  -0.460  -0.448  -0.444  -0.429  -0.420
 -0.387  -0.362  -0.348  -0.347  -0.340  -0.332  -0.322  -0.285
 -0.259

 Beta MOs
 -- Occupied --
-19.203 -19.202 -19.160 -19.142 -19.141 -19.138 -19.119 -10.342
-10.339 -10.267 -10.247 -10.240  -1.204  -1.144  -1.116  -1.079
 -1.049  -1.016  -0.880  -0.848  -0.820  -0.737  -0.611  -0.603
 -0.588  -0.565  -0.545  -0.529  -0.520  -0.517  -0.510  -0.506
 -0.504  -0.487  -0.483  -0.468  -0.455  -0.449  -0.428  -0.425
 -0.387  -0.347  -0.341  -0.334  -0.327  -0.316  -0.313  -0.305
 -0.275

          Ground-State Mulliken Net Atomic Charges

     Atom                 Charge (a.u.)    Spin (a.u.)
  --------------------------------------------------------
      1 C                     0.016852       0.020284
      2 O                    -0.705873       0.008530
      3 O                    -0.689739      -0.000421
      4 C                    -0.171233       0.028582
      5 H                     0.180439       0.004851
      6 H                     0.212438       0.006088
      7 C                    -0.353708       0.354808
      8 H                     0.258561      -0.002121
      9 H                     0.254862       0.009279
     10 C                     0.895819      -0.088723
     11 C                    -0.839785       0.134526
     12 H                     0.263791      -0.005967
     13 H                     0.096125      -0.005832
     14 H                     0.223528      -0.004706
     15 O                    -0.908857       0.141209
     16 O                    -0.707978       0.391258
     17 H                     0.329035       0.006473
     18 O                    -0.705155       0.002054
     19 H                     0.298830      -0.000105
     20 O                    -0.494955      -0.475918
     21 O                    -0.452997      -0.524150
  --------------------------------------------------------
  Sum of atomic charges =    -3.000000

                    Cartesian Multipole Moments
 -----------------------------------------------------------------
    Charge (ESU x 10^10)
               -14.4096
    Dipole Moment (Debye)
         X      -7.2141      Y      -6.4462      Z      -1.5724
       Tot       9.8014
    Quadrupole Moments (Debye-Ang)
        XX    -101.5082     XY      10.7242     YY    -107.1268
        XZ      23.8239     YZ      -1.8537     ZZ    -278.2392

             Standard Nuclear Orientation (Angstroms)
    I     Atom           X                Y                Z
 ----------------------------------------------------------------
    1      C       0.6381980000     0.5123416232    -4.0586647825
    2      O       0.2212668836     1.3843063105    -4.8658846195
    3      O       1.2700423394    -0.5298799298    -4.3664933623
    4      C       0.3229114265     0.7725954613    -2.5700708610
    5      H      -0.7677171347     0.8234385484    -2.4879159378
    6      H       0.7007147713     1.7679059994    -2.3210138847
    7      C       0.8932718065    -0.2579578626    -1.6321983513
    8      H       1.9817546330    -0.2865321113    -1.6272830667
    9      H       0.4798647552    -1.2570943399    -1.7656600979
   10      C       0.5326525712     0.0155636409     0.1020296960
   11      C      -1.0195480600    -0.0775633749     0.1434638976
   12      H      -1.4890219698     0.7318856319    -0.4184782495
   13      H      -1.3152608767     0.0063822192     1.1944115106
   14      H      -1.3600612900    -1.0423009190    -0.2400765223
   15      O       1.1231090672    -1.0021914088     0.6976099532
   16      O       0.9925269336     1.2315213053     0.2485195574
   17      H       1.0761129082    -0.7725570247     2.4054629085
   18      O       1.0514041101    -0.6679491423     3.3898450945
   19      H       0.1880338572    -0.2326693310     3.5923686091
   20      O      -1.3083921039     0.5866075320     3.9940225971
   21      O      -1.0691283943     1.8413943303     3.6567128027
 ----------------------------------------------------------------

 Frequency:      -318.16                  20.50                  29.39
 Force Cnst:      0.5789                 0.0017                 0.0049
 Red. Mass:       9.7071                 6.7912                 9.5903
 IR Intens:      141.820                  6.649                  5.570
 Frequency:        40.77                  49.46                  54.71
 Force Cnst:      0.0128                 0.0140                 0.0172
 Red. Mass:      13.0747                 9.7472                 9.7636
 IR Intens:        1.127                  4.993                  2.136
 Frequency:        67.14                  68.63                 117.87
 Force Cnst:      0.0216                 0.0095                 0.0205
 Red. Mass:       8.1162                 3.4400                 2.5071
 IR Intens:        2.932                 22.544                  9.580
 Frequency:       121.51                 141.18                 184.53
 Force Cnst:      0.0632                 0.0951                 0.1311
 Red. Mass:       7.2597                 8.0965                 6.5336
 IR Intens:        0.404                  7.826                 25.816
 Frequency:       229.90                 240.48                 264.28
 Force Cnst:      0.2442                 0.1021                 0.0537
 Red. Mass:       7.8412                 2.9978                 1.3051
 IR Intens:       26.726                 31.971                  8.797
 Frequency:       280.33                 323.69                 425.15
 Force Cnst:      0.3437                 0.2775                 0.3835
 Red. Mass:       7.4242                 4.4959                 3.6014
 IR Intens:       19.605                 43.823                 18.095
 Frequency:       469.34                 551.35                 592.18
 Force Cnst:      0.6542                 0.7574                 0.4040
 Red. Mass:       5.0404                 4.2288                 1.9554
 IR Intens:       20.979                 74.969                  8.853
 Frequency:       617.11                 682.97                 688.94
 Force Cnst:      1.2409                 0.2852                 1.5373
 Red. Mass:       5.5304                 1.0378                 5.4974
 IR Intens:       48.531                115.521                 20.053
 Frequency:       762.30                 786.74                 819.62
 Force Cnst:      0.4825                 0.3978                 0.4240
 Red. Mass:       1.4092                 1.0909                 1.0713
 IR Intens:       11.431                204.797                 39.986
 Frequency:       852.23                 913.51                 931.11
 Force Cnst:      1.5731                 1.8828                 0.8701
 Red. Mass:       3.6762                 3.8294                 1.7033
 IR Intens:       16.821                 44.478                 15.597
 Frequency:       997.84                1006.15                1096.31
 Force Cnst:      0.7815                 0.8422                 1.9364
 Red. Mass:       1.3322                 1.4120                 2.7346
 IR Intens:       36.001                 47.989                  8.048
 Frequency:      1123.28                1155.73                1188.57
 Force Cnst:      1.0922                 1.0105                 7.6125
 Red. Mass:       1.4692                 1.2841                 9.1459
 IR Intens:        1.958                 83.096                261.058
 Frequency:      1283.04                1285.39                1306.03
 Force Cnst:     15.5054                 1.1967                 1.5704
 Red. Mass:      15.9864                 1.2293                 1.5626
 IR Intens:        0.948                 21.381                 34.119
 Frequency:      1338.55                1365.42                1413.43
 Force Cnst:      5.1238                 1.4170                10.1182
 Red. Mass:       4.8537                 1.2900                 8.5962
 IR Intens:      464.051                 39.694                534.855
 Frequency:      1456.17                1463.24                1468.87
 Force Cnst:      1.4288                 1.4281                 1.3773
 Red. Mass:       1.1437                 1.1321                 1.0835
 IR Intens:       29.528                  1.400                  2.148
 Frequency:      1477.85                1588.22                1637.47
 Force Cnst:      1.3718                15.4148                 1.6844
 Red. Mass:       1.0660                10.3721                 1.0662
 IR Intens:        3.571               1302.494                 94.697
 Frequency:      3053.18                3076.99                3113.73
 Force Cnst:      5.6804                 5.9226                 6.0355
 Red. Mass:       1.0343                 1.0617                 1.0566
 IR Intens:       33.117                 24.898                 40.056
 Frequency:      3122.62                3131.88                3152.29
 Force Cnst:      6.3199                 6.3685                 6.4650
 Red. Mass:       1.1001                 1.1020                 1.1043
 IR Intens:       16.981                 39.871                 44.460
 Frequency:      3191.23                3269.67                3325.12
 Force Cnst:      6.6696                 6.7309                 6.9981
 Red. Mass:       1.1116                 1.0686                 1.0743
 IR Intens:       41.914               1630.503               1354.379

 STANDARD THERMODYNAMIC QUANTITIES AT   298.15 K  AND     1.00 ATM

   This Molecule has  1 Imaginary Frequencies
   Zero point vibrational energy:       90.657 kcal/mol

   Atom    1 Element C  Has Mass   12.00000
   Atom    2 Element O  Has Mass   15.99491
   Atom    3 Element O  Has Mass   15.99491
   Atom    4 Element C  Has Mass   12.00000
   Atom    5 Element H  Has Mass    1.00783
   Atom    6 Element H  Has Mass    1.00783
   Atom    7 Element C  Has Mass   12.00000
   Atom    8 Element H  Has Mass    1.00783
   Atom    9 Element H  Has Mass    1.00783
   Atom   10 Element C  Has Mass   12.00000
   Atom   11 Element C  Has Mass   12.00000
   Atom   12 Element H  Has Mass    1.00783
   Atom   13 Element H  Has Mass    1.00783
   Atom   14 Element H  Has Mass    1.00783
   Atom   15 Element O  Has Mass   15.99491
   Atom   16 Element O  Has Mass   15.99491
   Atom   17 Element H  Has Mass    1.00783
   Atom   18 Element O  Has Mass   15.99491
   Atom   19 Element H  Has Mass    1.00783
   Atom   20 Element O  Has Mass   15.99491
   Atom   21 Element O  Has Mass   15.99491
   Molecular Mass:   181.034840 amu
   Principal axes and moments of inertia in amu*Bohr^2:
                             1           2           3
    Eigenvalues --      949.37163  6320.21180  6833.75322
          X              -0.14277    -0.64599     0.74988
          Y               0.00573     0.75709     0.65329
          Z               0.98974    -0.09757     0.10439
   Rotational Symmetry Number is   1
   The Molecule is an Asymmetric Top
   Translational Enthalpy:        0.889 kcal/mol
   Rotational Enthalpy:           0.889 kcal/mol
   Vibrational Enthalpy:         98.674 kcal/mol
   gas constant (RT):             0.592 kcal/mol
   Translational Entropy:        41.487  cal/mol.K
   Rotational Entropy:           32.083  cal/mol.K
   Vibrational Entropy:          60.374  cal/mol.K

   Total Enthalpy:              101.044 kcal/mol
   Total Entropy:               133.944  cal/mol.K

 Total job time:  152324.88s(wall), 2027874.75s(cpu)
        *  Thank you very much for using Q-Chem.  Have a nice day.  *
