 Q-Chem 5.0, Q-Chem, Inc., Pleasanton, CA (2017)
 Q-Chem 5.0.2 for Intel X86 EM64T Linux

User input:
--------------------------------------------------------------
$molecule
-3 1
C        1.2260187121    0.8083142067   -4.3447431156
O        0.2952824610    1.4233778576   -4.9280226376
O        2.1656443195    0.1915621214   -4.9058661547
C        1.2205953329    0.8650285172   -2.8019530315
H        0.2079516791    1.0892660948   -2.4544078839
H        1.8213514796    1.7589740628   -2.5500623204
C        1.7705563243   -0.3315482620   -2.1166260548
H        2.5804343017   -0.8937256874   -2.5668982740
H        1.4423495481   -0.5909430940   -1.1152440467
C       -0.9361316173    0.1475828647    0.3070478661
C       -1.9107719259   -0.2243568550   -0.8090175686
H       -2.2904742140    0.6592332730   -1.3246974035
H       -2.7491717017   -0.7864746441   -0.3865375750
H       -1.4084642405   -0.8780645672   -1.5286451779
O       -0.4169548047   -0.8186520559    0.9401510655
O       -0.7111128178    1.3614129740    0.5283459553
H        0.6246632991   -0.4296141826    2.3244054343
O        1.2301749229   -0.3021692589    3.0901602315
H        0.6769283199    0.0887921974    3.8100952323
O       -0.3249879139    0.7682559528    5.0619398980
O       -1.4956520076    0.7926246354    4.4500289371
$end

$rem
jobtype               freq
method                wb97x-v
basis                 def2-tzvpd
symmetry              off
sym_ignore            true
incdft                false
incfock               0
scf_guess             read
scf_convergence       8
thresh                14
unrestricted          true
!purecart             112
max_scf_cycles        1000
geom_opt_max_cycles   500
geom_opt_dmax         100
geom_opt_tol_gradient 10
solvent_method        pcm
ideriv                1
rpath_tol_displacement 1000
rpath_max_cycles      100
rpath_direction       1
$end

$pcm
theory              cosmo
method              iswig
Radii               bondi
vdwScale            1.20
hpoints             110
heavypoints         110
$end

$solvent
dielectric 78.400000
$end

--------------------------------------------------------------

   24    -722.8734527069      7.05E-09 Convergence criterion met
 Total energy in the final basis set = -722.87345271
   21    -722.8734515713      9.46E-09 Convergence criterion met
 Total energy in the final basis set = -722.87345157
   21    -722.8734515276      8.88E-09 Convergence criterion met
 Total energy in the final basis set = -722.87345153
   21    -722.8734519369      9.78E-09 Convergence criterion met
 Total energy in the final basis set = -722.87345194
   21    -722.8734519458      6.92E-09 Convergence criterion met
 Total energy in the final basis set = -722.87345195
   21    -722.8734516431      8.82E-09 Convergence criterion met
 Total energy in the final basis set = -722.87345164
   21    -722.8734516763      8.09E-09 Convergence criterion met
 Total energy in the final basis set = -722.87345168
   21    -722.8734520453      9.60E-09 Convergence criterion met
 Total energy in the final basis set = -722.87345249
   21    -722.8734524949      7.67E-09 Convergence criterion met
 Total energy in the final basis set = -722.87345249
   22    -722.8734519900      6.29E-09 Convergence criterion met
 Total energy in the final basis set = -722.87345199
   21    -722.8734520104      6.96E-09 Convergence criterion met
 Total energy in the final basis set = -722.87345201
   22    -722.8734526966      5.90E-09 Convergence criterion met
 Total energy in the final basis set = -722.87345270
   21    -722.8734527128      8.43E-09 Convergence criterion met
 Total energy in the final basis set = -722.87345271
   22    -722.8734525134      6.39E-09 Convergence criterion met
 Total energy in the final basis set = -722.87345251
   21    -722.8734525116      9.11E-09 Convergence criterion met
 Total energy in the final basis set = -722.87345251

                    Orbital Energies (a.u.)
 --------------------------------------------------------------

 Alpha MOs
 -- Occupied --
-19.192 -19.190 -19.162 -19.145 -19.144 -19.140 -19.140 -10.347
-10.343 -10.259 -10.253 -10.243  -1.175  -1.149  -1.145  -1.083
 -1.054  -1.051  -0.885  -0.834  -0.804  -0.737  -0.620  -0.607
 -0.589  -0.560  -0.544  -0.535  -0.534  -0.532  -0.523  -0.496
 -0.492  -0.485  -0.475  -0.465  -0.458  -0.449  -0.441  -0.424
 -0.387  -0.355  -0.349  -0.344  -0.342  -0.335  -0.332  -0.285
 -0.260

 Beta MOs
 -- Occupied --
-19.203 -19.202 -19.162 -19.145 -19.144 -19.140 -19.140 -10.347
-10.342 -10.254 -10.249 -10.243  -1.204  -1.149  -1.144  -1.083
 -1.054  -1.050  -0.870  -0.848  -0.834  -0.711  -0.620  -0.602
 -0.589  -0.556  -0.537  -0.534  -0.533  -0.532  -0.520  -0.516
 -0.507  -0.494  -0.491  -0.476  -0.458  -0.456  -0.446  -0.444
 -0.388  -0.354  -0.349  -0.342  -0.337  -0.335  -0.331  -0.313
 -0.277

          Ground-State Mulliken Net Atomic Charges

     Atom                 Charge (a.u.)    Spin (a.u.)
  --------------------------------------------------------
      1 C                     0.213503       0.023983
      2 O                    -0.709687       0.009396
      3 O                    -0.695746       0.002709
      4 C                     0.414231      -0.073879
      5 H                    -0.064854       0.008715
      6 H                     0.189267       0.082207
      7 C                    -0.922342       0.899876
      8 H                     0.256498       0.008313
      9 H                     0.292958       0.033922
     10 C                     0.565405       0.001850
     11 C                    -0.758305       0.007474
     12 H                     0.233081      -0.000876
     13 H                     0.227940      -0.000262
     14 H                     0.222451      -0.004876
     15 O                    -0.791737       0.001832
     16 O                    -0.694916      -0.000372
     17 H                     0.342644      -0.000773
     18 O                    -0.693367      -0.001317
     19 H                     0.339321       0.002227
     20 O                    -0.508360      -0.477890
     21 O                    -0.457987      -0.522261
  --------------------------------------------------------
  Sum of atomic charges =    -3.000000

                    Cartesian Multipole Moments
 -----------------------------------------------------------------
    Charge (ESU x 10^10)
               -14.4096
    Dipole Moment (Debye)
         X      -3.4723      Y      -7.9375      Z      -2.7192
       Tot       9.0804
    Quadrupole Moments (Debye-Ang)
        XX    -103.6484     XY       7.0971     YY     -97.5039
        XZ      41.4581     YZ       5.6939     ZZ    -321.3887

             Standard Nuclear Orientation (Angstroms)
    I     Atom           X                Y                Z
 ----------------------------------------------------------------
    1      C       1.2260187121     0.8083142067    -4.3447431156
    2      O       0.2952824610     1.4233778576    -4.9280226376
    3      O       2.1656443195     0.1915621214    -4.9058661547
    4      C       1.2205953329     0.8650285172    -2.8019530315
    5      H       0.2079516791     1.0892660948    -2.4544078839
    6      H       1.8213514796     1.7589740628    -2.5500623204
    7      C       1.7705563243    -0.3315482620    -2.1166260548
    8      H       2.5804343017    -0.8937256874    -2.5668982740
    9      H       1.4423495481    -0.5909430940    -1.1152440467
   10      C      -0.9361316173     0.1475828647     0.3070478661
   11      C      -1.9107719259    -0.2243568550    -0.8090175686
   12      H      -2.2904742140     0.6592332730    -1.3246974035
   13      H      -2.7491717017    -0.7864746441    -0.3865375750
   14      H      -1.4084642405    -0.8780645672    -1.5286451779
   15      O      -0.4169548047    -0.8186520559     0.9401510655
   16      O      -0.7111128178     1.3614129740     0.5283459553
   17      H       0.6246632991    -0.4296141826     2.3244054343
   18      O       1.2301749229    -0.3021692589     3.0901602315
   19      H       0.6769283199     0.0887921974     3.8100952323
   20      O      -0.3249879139     0.7682559528     5.0619398980
   21      O      -1.4956520076     0.7926246354     4.4500289371
 ----------------------------------------------------------------

 Frequency:        10.80                  18.04                  23.93
 Force Cnst:      0.0006                 0.0015                 0.0028
 Red. Mass:       9.3742                 7.7727                 8.1695
 IR Intens:        0.393                 10.724                  9.838
 Frequency:        28.59                  33.17                  36.64
 Force Cnst:      0.0043                 0.0029                 0.0084
 Red. Mass:       8.9859                 4.5033                10.6366
 IR Intens:        2.874                 20.595                  3.176
 Frequency:        47.80                  53.23                  57.49
 Force Cnst:      0.0045                 0.0059                 0.0050
 Red. Mass:       3.3065                 3.5466                 2.5677
 IR Intens:        4.381                  2.308                  0.705
 Frequency:        67.54                  74.63                  80.80
 Force Cnst:      0.0175                 0.0102                 0.0257
 Red. Mass:       6.5217                 3.0966                 6.6742
 IR Intens:        4.451                  0.554                  3.475
 Frequency:        91.59                 127.88                 165.96
 Force Cnst:      0.0100                 0.0935                 0.0168
 Red. Mass:       2.0251                 9.7030                 1.0374
 IR Intens:        2.212                  5.396                  0.278
 Frequency:       195.00                 234.39                 292.29
 Force Cnst:      0.1378                 0.3089                 0.1818
 Red. Mass:       6.1497                 9.5424                 3.6117
 IR Intens:       13.219                 40.284                  6.412
 Frequency:       442.59                 462.58                 489.60
 Force Cnst:      0.1721                 0.4001                 0.3610
 Red. Mass:       1.4909                 3.1737                 2.5561
 IR Intens:       61.294                  8.181                 51.103
 Frequency:       592.41                 626.48                 639.60
 Force Cnst:      0.7429                 0.5342                 1.0507
 Red. Mass:       3.5929                 2.3100                 4.3593
 IR Intens:       46.063                  8.825                 47.290
 Frequency:       671.90                 709.22                 715.77
 Force Cnst:      0.6639                 0.3130                 0.3195
 Red. Mass:       2.4962                 1.0561                 1.0583
 IR Intens:        8.016                151.854                217.107
 Frequency:       750.41                 854.31                 922.08
 Force Cnst:      0.3581                 1.3721                 1.7012
 Red. Mass:       1.0795                 3.1909                 3.3961
 IR Intens:       38.264                 46.524                  7.002
 Frequency:       929.60                1023.29                1032.09
 Force Cnst:      2.9314                 0.9123                 0.9981
 Red. Mass:       5.7575                 1.4787                 1.5903
 IR Intens:       25.840                 23.161                 12.904
 Frequency:      1061.89                1112.52                1180.69
 Force Cnst:      1.2988                 1.5927                 1.0647
 Red. Mass:       1.9549                 2.1841                 1.2963
 IR Intens:       12.120                  2.826                  6.122
 Frequency:      1283.56                1322.74                1358.28
 Force Cnst:     15.4878                 1.6805                 1.5129
 Red. Mass:      15.9554                 1.6302                 1.3919
 IR Intens:        1.121                 39.733                 28.783
 Frequency:      1415.61                1434.40                1436.60
 Force Cnst:      3.7570                 1.5362                 3.1295
 Red. Mass:       3.1820                 1.2672                 2.5737
 IR Intens:      335.706                 68.312                345.013
 Frequency:      1451.16                1454.78                1466.73
 Force Cnst:      1.6577                 1.8019                 1.3322
 Red. Mass:       1.3360                 1.4451                 1.0510
 IR Intens:       38.775                229.271                 11.078
 Frequency:      1589.01                1594.37                1660.18
 Force Cnst:     11.3952                15.0860                 1.7355
 Red. Mass:       7.6599                10.0727                 1.0688
 IR Intens:     1139.227               1260.290                 82.194
 Frequency:      2956.49                3057.98                3104.61
 Force Cnst:      5.5234                 5.7083                 6.1654
 Red. Mass:       1.0725                 1.0361                 1.0857
 IR Intens:       26.756                 14.680                 26.957
 Frequency:      3129.15                3151.73                3160.21
 Force Cnst:      6.3512                 6.4646                 6.1871
 Red. Mass:       1.1009                 1.1046                 1.0515
 IR Intens:       22.734                 40.263                 17.799
 Frequency:      3268.61                3310.31                3401.32
 Force Cnst:      7.0390                 6.8862                 7.3223
 Red. Mass:       1.1182                 1.0666                 1.0742
 IR Intens:        6.598               1313.774               1360.275

 STANDARD THERMODYNAMIC QUANTITIES AT   298.15 K  AND     1.00 ATM

   This Molecule has  0 Imaginary Frequencies
   Zero point vibrational energy:       88.440 kcal/mol

   Atom    1 Element C  Has Mass   12.00000
   Atom    2 Element O  Has Mass   15.99491
   Atom    3 Element O  Has Mass   15.99491
   Atom    4 Element C  Has Mass   12.00000
   Atom    5 Element H  Has Mass    1.00783
   Atom    6 Element H  Has Mass    1.00783
   Atom    7 Element C  Has Mass   12.00000
   Atom    8 Element H  Has Mass    1.00783
   Atom    9 Element H  Has Mass    1.00783
   Atom   10 Element C  Has Mass   12.00000
   Atom   11 Element C  Has Mass   12.00000
   Atom   12 Element H  Has Mass    1.00783
   Atom   13 Element H  Has Mass    1.00783
   Atom   14 Element H  Has Mass    1.00783
   Atom   15 Element O  Has Mass   15.99491
   Atom   16 Element O  Has Mass   15.99491
   Atom   17 Element H  Has Mass    1.00783
   Atom   18 Element O  Has Mass   15.99491
   Atom   19 Element H  Has Mass    1.00783
   Atom   20 Element O  Has Mass   15.99491
   Atom   21 Element O  Has Mass   15.99491
   Molecular Mass:   181.034840 amu
   Principal axes and moments of inertia in amu*Bohr^2:
                             1           2           3
    Eigenvalues --     1084.58033  8066.48427  8538.06513
          X              -0.21179     0.95566     0.20459
          Y              -0.03018    -0.21563     0.97601
          Z               0.97685     0.20053     0.07451
   Rotational Symmetry Number is   1
   The Molecule is an Asymmetric Top
   Translational Enthalpy:        0.889 kcal/mol
   Rotational Enthalpy:           0.889 kcal/mol
   Vibrational Enthalpy:         98.319 kcal/mol
   gas constant (RT):             0.592 kcal/mol
   Translational Entropy:        41.487  cal/mol.K
   Rotational Entropy:           32.679  cal/mol.K
   Vibrational Entropy:          84.441  cal/mol.K

   Total Enthalpy:              100.688 kcal/mol
   Total Entropy:               158.608  cal/mol.K

 Total job time:  82485.18s(wall), 1122543.39s(cpu)
        *  Thank you very much for using Q-Chem.  Have a nice day.  *
