 Q-Chem 5.0, Q-Chem, Inc., Pleasanton, CA (2017)
 Q-Chem 5.0.2 for Intel X86 EM64T Linux

User input:
--------------------------------------------------------------
$molecule
-2 1
C       -3.1274558315   -0.4396003194   -1.0787048137
C        0.5656038142    0.8123900293    0.3756345717
C        1.0430911957   -0.3076792631   -0.1763626566
H       -0.4944388498    1.0499060825    0.2953382632
H        1.2116208505    1.5063073931    0.9078776067
H        3.2580713513    3.0219455570    0.7158462776
O       -2.2813794913   -1.3022953477   -1.4490883111
C       -4.6031586392   -0.7401018045   -1.4371903834
H       -5.2381291274    0.1445387060   -1.3247882488
H       -4.6836191005   -1.1193536726   -2.4624761630
H       -4.9890282753   -1.5253084497   -0.7731389753
O       -2.9024840743    0.6211778429   -0.4296113755
H        0.3513154894   -0.9693291417   -0.6978031359
C        2.4851604907   -0.7759892937   -0.1487025018
O        2.7105682016   -1.8794434602   -0.7110136782
O        3.3627602503   -0.0523565758    0.4262965005
O        3.3768233128    2.4491727030    1.4895342280
H        3.3243588895    1.5360699100    1.0968164206
$end

$rem
jobtype               force
method                b3lyp
basis                 6-31g*
symmetry              off
sym_ignore            true
incdft                false
incfock               0
!scf_algorithm        diis_gdm
scf_convergence       8
thresh                14
!purecart             112
max_scf_cycles        1000
geom_opt_max_cycles   500
geom_opt_dmax         100
geom_opt_tol_gradient 10
solvent_method        pcm
ideriv                1
rpath_tol_displacement 1000
rpath_max_cycles      50
rpath_direction       1
!scf_guess            read
scf_guess             read
geom_opt_hessian      read
$end

$pcm
theory              cosmo
method              iswig
Radii               bondi
vdwScale            1.20
hpoints             110
heavypoints         110
$end

$solvent
dielectric 78.400000
$end

--------------------------------------------------------------

             Standard Nuclear Orientation (Angstroms)
    I     Atom           X                Y                Z
 ----------------------------------------------------------------
    1      C      -3.1274558315    -0.4396003194    -1.0787048137
    2      C       0.5656038142     0.8123900293     0.3756345717
    3      C       1.0430911957    -0.3076792631    -0.1763626566
    4      H      -0.4944388498     1.0499060825     0.2953382632
    5      H       1.2116208505     1.5063073931     0.9078776067
    6      H       3.2580713513     3.0219455570     0.7158462776
    7      O      -2.2813794913    -1.3022953477    -1.4490883111
    8      C      -4.6031586392    -0.7401018045    -1.4371903834
    9      H      -5.2381291274     0.1445387060    -1.3247882488
   10      H      -4.6836191005    -1.1193536726    -2.4624761630
   11      H      -4.9890282753    -1.5253084497    -0.7731389753
   12      O      -2.9024840743     0.6211778429    -0.4296113755
   13      H       0.3513154894    -0.9693291417    -0.6978031359
   14      C       2.4851604907    -0.7759892937    -0.1487025018
   15      O       2.7105682016    -1.8794434602    -0.7110136782
   16      O       3.3627602503    -0.0523565758     0.4262965005
   17      O       3.3768233128     2.4491727030     1.4895342280
   18      H       3.3243588895     1.5360699100     1.0968164206
 ----------------------------------------------------------------

   16    -571.7360464052      2.19E-09 Convergence criterion met
 Total energy in the final basis set = -571.73604641

                    Orbital Energies (a.u.)
 --------------------------------------------------------------

 Alpha MOs
 -- Occupied --
-19.105 -19.066 -19.060 -19.054 -19.052 -10.249 -10.240 -10.163
-10.162 -10.152  -0.993  -0.981  -0.962  -0.903  -0.894  -0.742
 -0.685  -0.582  -0.492  -0.478  -0.466  -0.426  -0.410  -0.402
 -0.396  -0.388  -0.372  -0.370  -0.353  -0.346  -0.340  -0.323
 -0.269  -0.247  -0.225  -0.220  -0.215  -0.207  -0.203  -0.195

          Ground-State Mulliken Net Atomic Charges

     Atom                 Charge (a.u.)
  ----------------------------------------
      1 C                     0.502898
      2 C                    -0.390192
      3 C                    -0.160370
      4 H                     0.139784
      5 H                     0.133200
      6 H                     0.397540
      7 O                    -0.661389
      8 C                    -0.531378
      9 H                     0.128088
     10 H                     0.137667
     11 H                     0.149368
     12 O                    -0.655108
     13 H                     0.103778
     14 C                     0.499182
     15 O                    -0.663629
     16 O                    -0.657052
     17 O                    -0.891172
     18 H                     0.418785
  ----------------------------------------
  Sum of atomic charges =    -2.000000

                    Cartesian Multipole Moments
 -----------------------------------------------------------------
    Charge (ESU x 10^10)
                -9.6064
    Dipole Moment (Debye)
         X      -5.0970      Y       4.3390      Z       1.9949
       Tot       6.9847
    Quadrupole Moments (Debye-Ang)
        XX    -140.8567     XY       6.1448     YY     -80.3306
        XZ     -17.2289     YZ     -16.1804     ZZ     -74.6237

 Total job time:  16.43s(wall), 60.43s(cpu)
        *  Thank you very much for using Q-Chem.  Have a nice day.  *
