 Q-Chem 5.0, Q-Chem, Inc., Pleasanton, CA (2017)
 Q-Chem 5.0.2 for Intel X86 EM64T Linux

User input:
--------------------------------------------------------------
$molecule
-2 1
C       -2.7844910152   -0.1446053999   -0.0521519864
H       -2.8412634970   -0.0232708130   -1.1373253196
H       -2.9819023665   -1.1900434862    0.2021176070
H       -3.5441613993    0.4847125750    0.4184886303
C       -1.4128347521    0.2597810223    0.4784132201
C        0.8867565681   -0.2645190796    0.0634784718
H        1.0631317065   -0.7978046766    1.0052195529
H        1.1054974961    0.7978114010    0.2259930110
C        1.7795779362   -0.8203494714   -1.0368093182
H        1.5476406289   -1.8783360958   -1.1917324275
H        1.5844063295   -0.2733160737   -1.9644356180
C        3.2563504033   -0.6589485136   -0.6452404357
O        3.7971622058   -1.6096998628   -0.0212126165
O        3.8143411883    0.4273024761   -0.9536893848
O       -0.4661639591   -0.4185159788   -0.3461035008
O       -1.2204949852    1.7195825027    0.0612116049
O       -1.2096162396    2.5121009826    1.2528580447
O       -1.2324264739    0.1495452844    1.7685916386
H       -1.1577495115    1.7355280703    1.8998395166
$end

$rem
jobtype               freq
method                wb97x-v
basis                 def2-tzvpd
symmetry              off
sym_ignore            true
incdft                false
incfock               0
!scf_algorithm        diis_gdm
scf_convergence       8
thresh                14
!purecart             112
max_scf_cycles        1000
geom_opt_max_cycles   500
geom_opt_dmax         100
geom_opt_tol_gradient 10
solvent_method        pcm
ideriv                1
rpath_tol_displacement 1000
rpath_max_cycles      100
rpath_direction       1
!scf_guess            read
scf_guess             read
$end

$pcm
theory              cosmo
method              iswig
Radii               bondi
vdwScale            1.20
hpoints             110
heavypoints         110
$end

$solvent
dielectric 78.400000
$end

--------------------------------------------------------------

   17    -646.9660517588      3.42E-09 Convergence criterion met
 Total energy in the final basis set = -646.96605176
   14    -646.9660510248      7.31E-09 Convergence criterion met
 Total energy in the final basis set = -646.96605102
   13    -646.9660506864      9.19E-09 Convergence criterion met
 Total energy in the final basis set = -646.96605069
   14    -646.9660511062      6.61E-09 Convergence criterion met
 Total energy in the final basis set = -646.96605111
   13    -646.9660503513      9.21E-09 Convergence criterion met
 Total energy in the final basis set = -646.96605035
   13    -646.9660504975      9.21E-09 Convergence criterion met
 Total energy in the final basis set = -646.96605050
   13    -646.9660509425      9.47E-09 Convergence criterion met
 Total energy in the final basis set = -646.96605094
   14    -646.9660514410      6.26E-09 Convergence criterion met
 Total energy in the final basis set = -646.96604940
   13    -646.9660524489      9.91E-09 Convergence criterion met
 Total energy in the final basis set = -646.96605245
   14    -646.9660513627      8.14E-09 Convergence criterion met
 Total energy in the final basis set = -646.96605136
   16    -646.9660520775      3.67E-09 Convergence criterion met
 Total energy in the final basis set = -646.96605208
   15    -646.9660524432      5.86E-09 Convergence criterion met
 Total energy in the final basis set = -646.96605244
   14    -646.9660504681      6.98E-09 Convergence criterion met
 Total energy in the final basis set = -646.96605047
   16    -646.9660492791      8.87E-09 Convergence criterion met
 Total energy in the final basis set = -646.96604928
   14    -646.9660534251      5.93E-09 Convergence criterion met
 Total energy in the final basis set = -646.96605343

                    Orbital Energies (a.u.)
 --------------------------------------------------------------

 Alpha MOs
 -- Occupied --
-19.226 -19.224 -19.198 -19.141 -19.141 -19.128 -10.378 -10.342
-10.296 -10.246 -10.239  -1.226  -1.156  -1.144  -1.065  -1.050
 -0.966  -0.881  -0.834  -0.740  -0.673  -0.638  -0.601  -0.580
 -0.565  -0.556  -0.530  -0.525  -0.513  -0.500  -0.498  -0.478
 -0.470  -0.457  -0.446  -0.430  -0.418  -0.369  -0.352  -0.347
 -0.342  -0.333  -0.330  -0.313

          Ground-State Mulliken Net Atomic Charges

     Atom                 Charge (a.u.)
  ----------------------------------------
      1 C                    -1.146392
      2 H                     0.217183
      3 H                     0.250807
      4 H                     0.226088
      5 C                     0.859558
      6 C                    -0.483811
      7 H                     0.177934
      8 H                     0.186605
      9 C                     0.118868
     10 H                     0.173897
     11 H                     0.174340
     12 C                     0.192533
     13 O                    -0.703560
     14 O                    -0.704948
     15 O                    -0.280628
     16 O                    -0.284281
     17 O                    -0.429865
     18 O                    -0.917879
     19 H                     0.373553
  ----------------------------------------
  Sum of atomic charges =    -2.000000

                    Cartesian Multipole Moments
 -----------------------------------------------------------------
    Charge (ESU x 10^10)
                -9.6064
    Dipole Moment (Debye)
         X     -13.9509      Y      -2.3074      Z      -2.5943
       Tot      14.3765
    Quadrupole Moments (Debye-Ang)
        XX    -156.8863     XY      17.1302     YY     -94.8467
        XZ      14.1828     YZ       0.1600     ZZ     -81.8925

             Standard Nuclear Orientation (Angstroms)
    I     Atom           X                Y                Z
 ----------------------------------------------------------------
    1      C      -2.7844910152    -0.1446053999    -0.0521519864
    2      H      -2.8412634970    -0.0232708130    -1.1373253196
    3      H      -2.9819023665    -1.1900434862     0.2021176070
    4      H      -3.5441613993     0.4847125750     0.4184886303
    5      C      -1.4128347521     0.2597810223     0.4784132201
    6      C       0.8867565681    -0.2645190796     0.0634784718
    7      H       1.0631317065    -0.7978046766     1.0052195529
    8      H       1.1054974961     0.7978114010     0.2259930110
    9      C       1.7795779362    -0.8203494714    -1.0368093182
   10      H       1.5476406289    -1.8783360958    -1.1917324275
   11      H       1.5844063295    -0.2733160737    -1.9644356180
   12      C       3.2563504033    -0.6589485136    -0.6452404357
   13      O       3.7971622058    -1.6096998628    -0.0212126165
   14      O       3.8143411883     0.4273024761    -0.9536893848
   15      O      -0.4661639591    -0.4185159788    -0.3461035008
   16      O      -1.2204949852     1.7195825027     0.0612116049
   17      O      -1.2096162396     2.5121009826     1.2528580447
   18      O      -1.2324264739     0.1495452844     1.7685916386
   19      H      -1.1577495115     1.7355280703     1.8998395166
 ----------------------------------------------------------------

 Frequency:       -37.67                  20.94                  50.37
 Force Cnst:      0.0073                 0.0035                 0.0059
 Red. Mass:       8.7690                13.6639                 3.9227
 IR Intens:        1.173                  0.207                  0.186
 Frequency:        62.85                  99.67                 181.42
 Force Cnst:      0.0099                 0.0390                 0.0594
 Red. Mass:       4.2526                 6.6633                 3.0649
 IR Intens:        2.524                  5.402                 25.418
 Frequency:       224.47                 248.86                 296.33
 Force Cnst:      0.1138                 0.0395                 0.2950
 Red. Mass:       3.8338                 1.0824                 5.7029
 IR Intens:       19.025                  2.581                 15.787
 Frequency:       342.41                 375.10                 411.00
 Force Cnst:      0.2785                 0.4512                 0.3946
 Red. Mass:       4.0310                 5.4425                 3.9647
 IR Intens:        2.078                 54.736                 10.252
 Frequency:       463.56                 482.17                 609.93
 Force Cnst:      0.3972                 0.8812                 0.9464
 Red. Mass:       3.1371                 6.4335                 4.3176
 IR Intens:        7.101                  6.802                 16.161
 Frequency:       636.29                 680.41                 705.27
 Force Cnst:      1.7745                 1.4792                 1.1048
 Red. Mass:       7.4392                 5.4230                 3.7700
 IR Intens:       46.492                223.904                167.232
 Frequency:       751.64                 788.86                 810.67
 Force Cnst:      0.3860                 2.5516                 0.4521
 Red. Mass:       1.1595                 6.9593                 1.1676
 IR Intens:       82.019                  4.979                  1.368
 Frequency:       873.85                 958.66                 982.17
 Force Cnst:      1.9079                 2.3563                 1.2193
 Red. Mass:       4.2407                 4.3516                 2.1453
 IR Intens:      146.783                 11.895                 77.341
 Frequency:      1027.84                1066.69                1074.25
 Force Cnst:      8.4573                 1.4575                 1.0954
 Red. Mass:      13.5873                 2.1741                 1.6111
 IR Intens:       11.876                182.590                  3.306
 Frequency:      1098.44                1106.43                1162.71
 Force Cnst:      2.2330                 3.0153                 2.4138
 Red. Mass:       3.1412                 4.1805                 3.0305
 IR Intens:      169.943                110.953                374.192
 Frequency:      1219.48                1284.40                1297.34
 Force Cnst:      1.1005                 1.4538                 1.0978
 Red. Mass:       1.2560                 1.4957                 1.1070
 IR Intens:       34.054                 16.934                  2.396
 Frequency:      1324.12                1397.86                1407.93
 Force Cnst:      2.9293                 1.7494                 1.8167
 Red. Mass:       2.8357                 1.5195                 1.5555
 IR Intens:      348.039                128.074                 24.241
 Frequency:      1430.77                1463.76                1467.89
 Force Cnst:      5.8474                 1.3272                 1.3315
 Red. Mass:       4.8481                 1.0513                 1.0489
 IR Intens:      338.507                 15.884                  0.584
 Frequency:      1481.35                1513.69                1517.96
 Force Cnst:      1.6089                 1.5211                 1.7323
 Red. Mass:       1.2444                 1.1268                 1.2760
 IR Intens:       58.234                 56.875                182.677
 Frequency:      1584.91                3001.67                3043.43
 Force Cnst:     14.7468                 5.6544                 5.7616
 Red. Mass:       9.9641                 1.0652                 1.0558
 IR Intens:     1309.267                664.435                 53.559
 Frequency:      3051.01                3065.75                3080.77
 Force Cnst:      5.6839                 5.8543                 6.1847
 Red. Mass:       1.0363                 1.0572                 1.1060
 IR Intens:       39.445                 39.465                 34.496
 Frequency:      3122.26                3134.47                3141.24
 Force Cnst:      6.3613                 6.3871                 6.4157
 Red. Mass:       1.1075                 1.1034                 1.1035
 IR Intens:       82.490                 52.827                 45.000

 STANDARD THERMODYNAMIC QUANTITIES AT   298.15 K  AND     1.00 ATM

   This Molecule has  1 Imaginary Frequencies
   Zero point vibrational energy:       86.668 kcal/mol

   Atom    1 Element C  Has Mass   12.00000
   Atom    2 Element H  Has Mass    1.00783
   Atom    3 Element H  Has Mass    1.00783
   Atom    4 Element H  Has Mass    1.00783
   Atom    5 Element C  Has Mass   12.00000
   Atom    6 Element C  Has Mass   12.00000
   Atom    7 Element H  Has Mass    1.00783
   Atom    8 Element H  Has Mass    1.00783
   Atom    9 Element C  Has Mass   12.00000
   Atom   10 Element H  Has Mass    1.00783
   Atom   11 Element H  Has Mass    1.00783
   Atom   12 Element C  Has Mass   12.00000
   Atom   13 Element O  Has Mass   15.99491
   Atom   14 Element O  Has Mass   15.99491
   Atom   15 Element O  Has Mass   15.99491
   Atom   16 Element O  Has Mass   15.99491
   Atom   17 Element O  Has Mass   15.99491
   Atom   18 Element O  Has Mass   15.99491
   Atom   19 Element H  Has Mass    1.00783
   Molecular Mass:   164.032100 amu
   Principal axes and moments of inertia in amu*Bohr^2:
                             1           2           3
    Eigenvalues --      814.82846  3654.78968  3940.59755
          X               0.92835     0.33807     0.15454
          Y              -0.29294     0.92130    -0.25571
          Z              -0.22883     0.19212     0.95432
   Rotational Symmetry Number is   1
   The Molecule is an Asymmetric Top
   Translational Enthalpy:        0.889 kcal/mol
   Rotational Enthalpy:           0.889 kcal/mol
   Vibrational Enthalpy:         91.670 kcal/mol
   gas constant (RT):             0.592 kcal/mol
   Translational Entropy:        41.193  cal/mol.K
   Rotational Entropy:           30.840  cal/mol.K
   Vibrational Entropy:          34.350  cal/mol.K

   Total Enthalpy:               94.040 kcal/mol
   Total Entropy:               106.383  cal/mol.K

 Total job time:  53406.91s(wall), 631129.00s(cpu)
        *  Thank you very much for using Q-Chem.  Have a nice day.  *
