 Q-Chem 5.0, Q-Chem, Inc., Pleasanton, CA (2017)
 Q-Chem 5.0.2 for Intel X86 EM64T Linux

User input:
--------------------------------------------------------------
$molecule
-2 1
C       -2.9062713724   -0.1413477240    0.6956409486
H       -3.0172034175   -0.6093334809   -0.2819661595
H       -3.1721575917   -0.8418659819    1.4884337809
H       -3.5743085996    0.7234703862    0.7465166107
C       -1.5031934610    0.3583661864    0.8924557369
C        0.8683262461   -0.9637227256   -0.1334523967
H        1.1098377634   -2.0377969854   -0.0784354603
H        1.0447098280   -0.5445928775    0.8708673008
C        1.8025475092   -0.2902618495   -1.1438062946
H        1.6365879239   -0.7354080991   -2.1300355601
H        1.5647022626    0.7758973508   -1.1870523265
C        3.2641740987   -0.4836708858   -0.7239056998
O        3.8477437658   -1.5272905474   -1.1237860714
O        3.7725072350    0.3934673397    0.0252217401
O       -0.4836272940   -0.8630601744   -0.4735785896
O       -0.9203190396    0.8915524406   -0.2450403848
O       -1.5784598401    2.6000872490    0.1627508275
O       -0.9450926956    0.4097011024    1.9671859601
H       -0.8105033212    2.8858092764    0.6719860381
$end

$rem
jobtype               freq
method                wb97x-v
basis                 def2-tzvpd
symmetry              off
sym_ignore            true
incdft                false
incfock               0
!scf_algorithm        diis_gdm
scf_convergence       8
thresh                14
!purecart             112
max_scf_cycles        1000
geom_opt_max_cycles   500
geom_opt_dmax         100
geom_opt_tol_gradient 10
solvent_method        pcm
ideriv                1
rpath_tol_displacement 1000
rpath_max_cycles      100
rpath_direction       1
!scf_guess            read
scf_guess             read
$end

$pcm
theory              cosmo
method              iswig
Radii               bondi
vdwScale            1.20
hpoints             110
heavypoints         110
$end

$solvent
dielectric 78.400000
$end

--------------------------------------------------------------

   17    -646.8936084101      7.17E-09 Convergence criterion met
 Total energy in the final basis set = -646.89360841
   16    -646.8936075290      4.71E-09 Convergence criterion met
 Total energy in the final basis set = -646.89360753
   15    -646.8936075319      6.16E-09 Convergence criterion met
 Total energy in the final basis set = -646.89360753
   15    -646.8936074464      8.25E-09 Convergence criterion met
 Total energy in the final basis set = -646.89360745
   15    -646.8936073778      6.48E-09 Convergence criterion met
 Total energy in the final basis set = -646.89360738
   15    -646.8936073177      8.55E-09 Convergence criterion met
 Total energy in the final basis set = -646.89360732
   15    -646.8936073197      6.39E-09 Convergence criterion met
 Total energy in the final basis set = -646.89360732
   16    -646.8936083113      5.40E-09 Convergence criterion met
 Total energy in the final basis set = -646.89360727
   15    -646.8936072448      5.58E-09 Convergence criterion met
 Total energy in the final basis set = -646.89360724
   16    -646.8936078432      3.45E-09 Convergence criterion met
 Total energy in the final basis set = -646.89360784
   16    -646.8936077590      4.39E-09 Convergence criterion met
 Total energy in the final basis set = -646.89360776
   15    -646.8936083013      8.96E-09 Convergence criterion met
 Total energy in the final basis set = -646.89360830
   15    -646.8936082950      8.67E-09 Convergence criterion met
 Total energy in the final basis set = -646.89360830
   15    -646.8936081846      6.22E-09 Convergence criterion met
 Total energy in the final basis set = -646.89360818
   15    -646.8936081071      9.90E-09 Convergence criterion met
 Total energy in the final basis set = -646.89360811

                    Orbital Energies (a.u.)
 --------------------------------------------------------------

 Alpha MOs
 -- Occupied --
-19.266 -19.187 -19.185 -19.155 -19.139 -19.139 -10.395 -10.340
-10.290 -10.256 -10.240  -1.205  -1.142  -1.125  -1.069  -1.047
 -1.010  -0.861  -0.855  -0.715  -0.654  -0.610  -0.598  -0.576
 -0.569  -0.551  -0.535  -0.525  -0.512  -0.505  -0.494  -0.486
 -0.471  -0.464  -0.440  -0.426  -0.399  -0.374  -0.357  -0.351
 -0.346  -0.329  -0.327  -0.301

          Ground-State Mulliken Net Atomic Charges

     Atom                 Charge (a.u.)
  ----------------------------------------
      1 C                    -0.951790
      2 H                     0.219103
      3 H                     0.254410
      4 H                     0.226790
      5 C                     1.010908
      6 C                    -0.284538
      7 H                     0.228174
      8 H                     0.121903
      9 C                     0.107067
     10 H                     0.150125
     11 H                     0.034712
     12 C                     0.209738
     13 O                    -0.702774
     14 O                    -0.695950
     15 O                    -0.555971
     16 O                    -0.305080
     17 O                    -0.770238
     18 O                    -0.565908
     19 H                     0.269320
  ----------------------------------------
  Sum of atomic charges =    -2.000000

                    Cartesian Multipole Moments
 -----------------------------------------------------------------
    Charge (ESU x 10^10)
                -9.6064
    Dipole Moment (Debye)
         X     -14.5941      Y      -2.7266      Z       0.9920
       Tot      14.8797
    Quadrupole Moments (Debye-Ang)
        XX    -155.9850     XY      24.5438     YY     -95.6851
        XZ       9.7229     YZ      -6.3656     ZZ     -82.5872

             Standard Nuclear Orientation (Angstroms)
    I     Atom           X                Y                Z
 ----------------------------------------------------------------
    1      C      -2.9062713724    -0.1413477240     0.6956409486
    2      H      -3.0172034175    -0.6093334809    -0.2819661595
    3      H      -3.1721575917    -0.8418659819     1.4884337809
    4      H      -3.5743085996     0.7234703862     0.7465166107
    5      C      -1.5031934610     0.3583661864     0.8924557369
    6      C       0.8683262461    -0.9637227256    -0.1334523967
    7      H       1.1098377634    -2.0377969854    -0.0784354603
    8      H       1.0447098280    -0.5445928775     0.8708673008
    9      C       1.8025475092    -0.2902618495    -1.1438062946
   10      H       1.6365879239    -0.7354080991    -2.1300355601
   11      H       1.5647022626     0.7758973508    -1.1870523265
   12      C       3.2641740987    -0.4836708858    -0.7239056998
   13      O       3.8477437658    -1.5272905474    -1.1237860714
   14      O       3.7725072350     0.3934673397     0.0252217401
   15      O      -0.4836272940    -0.8630601744    -0.4735785896
   16      O      -0.9203190396     0.8915524406    -0.2450403848
   17      O      -1.5784598401     2.6000872490     0.1627508275
   18      O      -0.9450926956     0.4097011024     1.9671859601
   19      H      -0.8105033212     2.8858092764     0.6719860381
 ----------------------------------------------------------------

 Frequency:      -602.68                  33.17                  47.94
 Force Cnst:      2.8171                 0.0081                 0.0082
 Red. Mass:      13.1637                12.4601                 6.0879
 IR Intens:     2938.711                  1.667                  2.715
 Frequency:        53.65                  86.83                  94.65
 Force Cnst:      0.0108                 0.0097                 0.0092
 Red. Mass:       6.3858                 2.1800                 1.7469
 IR Intens:        3.550                 23.345                 29.022
 Frequency:       140.30                 173.10                 191.92
 Force Cnst:      0.0270                 0.0549                 0.0688
 Red. Mass:       2.3263                 3.1083                 3.1715
 IR Intens:       48.325                125.079                 46.858
 Frequency:       196.58                 204.74                 241.39
 Force Cnst:      0.0963                 0.0677                 0.0728
 Red. Mass:       4.2285                 2.7405                 2.1210
 IR Intens:       52.326                 40.506                114.091
 Frequency:       333.14                 410.96                 430.72
 Force Cnst:      0.3381                 0.6354                 0.5266
 Red. Mass:       5.1714                 6.3859                 4.8180
 IR Intens:      120.469                 47.731                 23.082
 Frequency:       464.55                 487.84                 514.36
 Force Cnst:      0.3954                 0.5217                 0.4839
 Red. Mass:       3.1101                 3.7206                 3.1043
 IR Intens:       13.048                 17.703                168.678
 Frequency:       617.97                 672.14                 778.04
 Force Cnst:      1.2800                 1.3506                 0.7954
 Red. Mass:       5.6888                 5.0740                 2.2301
 IR Intens:       34.110                 43.663                 45.096
 Frequency:       786.37                 794.32                 889.52
 Force Cnst:      0.6361                 0.4876                 2.7419
 Red. Mass:       1.7458                 1.3116                 5.8815
 IR Intens:       64.585                 11.312                  4.405
 Frequency:       950.30                1025.70                1033.67
 Force Cnst:      2.5484                 1.0345                 1.0124
 Red. Mass:       4.7895                 1.6689                 1.6081
 IR Intens:        8.802                 89.791                 25.233
 Frequency:      1059.40                1065.57                1100.45
 Force Cnst:      2.0730                 1.3007                 3.0303
 Red. Mass:       3.1349                 1.9443                 4.2471
 IR Intens:       13.285                 26.593                200.679
 Frequency:      1204.05                1230.14                1269.92
 Force Cnst:      1.2185                 2.6332                 1.3933
 Red. Mass:       1.4266                 2.9534                 1.4664
 IR Intens:       74.727                347.588                 15.379
 Frequency:      1306.66                1383.40                1393.83
 Force Cnst:      1.1098                 1.5215                 1.6327
 Red. Mass:       1.1032                 1.3494                 1.4264
 IR Intens:        7.762                212.330                 41.477
 Frequency:      1426.64                1453.62                1464.81
 Force Cnst:      4.5844                 1.3139                 1.3449
 Red. Mass:       3.8229                 1.0554                 1.0639
 IR Intens:      287.873                 19.016                 14.339
 Frequency:      1471.00                1487.87                1577.12
 Force Cnst:      1.5465                 1.5397                14.5228
 Red. Mass:       1.2131                 1.1804                 9.9100
 IR Intens:       32.767                 44.781               1306.156
 Frequency:      1744.60                2981.09                3014.54
 Force Cnst:     20.4070                 5.5271                 5.9073
 Red. Mass:      11.3799                 1.0556                 1.1033
 IR Intens:      607.029                151.618                 38.139
 Frequency:      3068.87                3076.41                3125.30
 Force Cnst:      5.8792                 5.7816                 6.3631
 Red. Mass:       1.0595                 1.0368                 1.1057
 IR Intens:       46.934                  4.823                 57.901
 Frequency:      3154.17                3182.15                3841.60
 Force Cnst:      6.4461                 6.5950                 9.2812
 Red. Mass:       1.0997                 1.1054                 1.0674
 IR Intens:        8.127                 14.068                 51.715

 STANDARD THERMODYNAMIC QUANTITIES AT   298.15 K  AND     1.00 ATM

   This Molecule has  1 Imaginary Frequencies
   Zero point vibrational energy:       83.969 kcal/mol

   Atom    1 Element C  Has Mass   12.00000
   Atom    2 Element H  Has Mass    1.00783
   Atom    3 Element H  Has Mass    1.00783
   Atom    4 Element H  Has Mass    1.00783
   Atom    5 Element C  Has Mass   12.00000
   Atom    6 Element C  Has Mass   12.00000
   Atom    7 Element H  Has Mass    1.00783
   Atom    8 Element H  Has Mass    1.00783
   Atom    9 Element C  Has Mass   12.00000
   Atom   10 Element H  Has Mass    1.00783
   Atom   11 Element H  Has Mass    1.00783
   Atom   12 Element C  Has Mass   12.00000
   Atom   13 Element O  Has Mass   15.99491
   Atom   14 Element O  Has Mass   15.99491
   Atom   15 Element O  Has Mass   15.99491
   Atom   16 Element O  Has Mass   15.99491
   Atom   17 Element O  Has Mass   15.99491
   Atom   18 Element O  Has Mass   15.99491
   Atom   19 Element H  Has Mass    1.00783
   Molecular Mass:   164.032100 amu
   Principal axes and moments of inertia in amu*Bohr^2:
                             1           2           3
    Eigenvalues --      833.91993  3702.23633  3965.86482
          X               0.93250     0.29491     0.20851
          Y              -0.26225     0.94981    -0.17053
          Z              -0.24833     0.10433     0.96304
   Rotational Symmetry Number is   1
   The Molecule is an Asymmetric Top
   Translational Enthalpy:        0.889 kcal/mol
   Rotational Enthalpy:           0.889 kcal/mol
   Vibrational Enthalpy:         90.264 kcal/mol
   gas constant (RT):             0.592 kcal/mol
   Translational Entropy:        41.193  cal/mol.K
   Rotational Entropy:           30.882  cal/mol.K
   Vibrational Entropy:          43.353  cal/mol.K

   Total Enthalpy:               92.634 kcal/mol
   Total Entropy:               115.429  cal/mol.K

 Total job time:  162455.92s(wall), 626641.24s(cpu)
        *  Thank you very much for using Q-Chem.  Have a nice day.  *
