 Q-Chem 5.0, Q-Chem, Inc., Pleasanton, CA (2017)
 Q-Chem 5.0.2 for Intel X86 EM64T Linux

User input:
--------------------------------------------------------------
$molecule
-2 1
C       -2.9552780808    0.0727266929    0.5881341030
H       -3.4088519667    0.3583754043   -0.3649762984
H       -2.7566480762   -1.0008567032    0.5816067761
H       -3.6542393835    0.2969114344    1.3987367828
C       -1.6496156004    0.8293090544    0.8378800810
C        1.0005611796   -0.8911134276   -0.0671632513
H        1.1648288490   -1.9608241569    0.1082728381
H        1.1985404572   -0.3432316776    0.8589180944
C        1.8918823912   -0.3983170581   -1.2031786494
H        1.6640726560   -0.9677414715   -2.1090934018
H        1.6934380326    0.6612863184   -1.3824057812
C        3.3663214478   -0.5921084372   -0.8194351357
O        3.9177251408   -1.6689298837   -1.1693862454
O        3.9085061929    0.3255625968   -0.1489596682
O       -0.3870973251   -0.8057424425   -0.3731709812
O       -0.7627910015    0.5696873373   -0.3787585602
O       -1.9211065808    2.2229064541    0.5810653561
O       -1.0453193446    0.6086275895    1.9579478694
H       -1.2467415545    2.6874196576    1.0941543601
$end

$rem
jobtype               freq
method                wb97x-v
basis                 def2-tzvpd
symmetry              off
sym_ignore            true
incdft                false
incfock               0
!scf_algorithm        diis_gdm
scf_convergence       8
thresh                14
!purecart             112
max_scf_cycles        1000
geom_opt_max_cycles   500
geom_opt_dmax         100
geom_opt_tol_gradient 10
solvent_method        pcm
ideriv                1
rpath_tol_displacement 1000
rpath_max_cycles      100
rpath_direction       1
!scf_guess            read
scf_guess             read
$end

$pcm
theory              cosmo
method              iswig
Radii               bondi
vdwScale            1.20
hpoints             110
heavypoints         110
$end

$solvent
dielectric 78.400000
$end

--------------------------------------------------------------

   17    -646.9662736816      3.44E-09 Convergence criterion met
 Total energy in the final basis set = -646.96627368
   14    -646.9662727758      4.74E-09 Convergence criterion met
 Total energy in the final basis set = -646.96627278
   13    -646.9662727848      8.42E-09 Convergence criterion met
 Total energy in the final basis set = -646.96627278
   14    -646.9662726279      4.78E-09 Convergence criterion met
 Total energy in the final basis set = -646.96627263
   13    -646.9662727178      8.07E-09 Convergence criterion met
 Total energy in the final basis set = -646.96627272
   14    -646.9662726077      4.87E-09 Convergence criterion met
 Total energy in the final basis set = -646.96627261
   13    -646.9662726580      8.31E-09 Convergence criterion met
 Total energy in the final basis set = -646.96627266
   14    -646.9662735027      5.57E-09 Convergence criterion met
 Total energy in the final basis set = -646.96627295
   13    -646.9662729831      7.81E-09 Convergence criterion met
 Total energy in the final basis set = -646.96627298
   14    -646.9662732269      4.75E-09 Convergence criterion met
 Total energy in the final basis set = -646.96627323
   14    -646.9662732231      6.17E-09 Convergence criterion met
 Total energy in the final basis set = -646.96627322
   15    -646.9662733817      2.51E-09 Convergence criterion met
 Total energy in the final basis set = -646.96627338
   15    -646.9662733814      6.21E-09 Convergence criterion met
 Total energy in the final basis set = -646.96627338
   15    -646.9662734145      4.84E-09 Convergence criterion met
 Total energy in the final basis set = -646.96627341
   14    -646.9662734144      5.71E-09 Convergence criterion met
 Total energy in the final basis set = -646.96627341

                    Orbital Energies (a.u.)
 --------------------------------------------------------------

 Alpha MOs
 -- Occupied --
-19.246 -19.227 -19.193 -19.141 -19.141 -19.110 -10.372 -10.343
-10.301 -10.246 -10.235  -1.232  -1.152  -1.145  -1.050  -1.049
 -0.997  -0.866  -0.835  -0.739  -0.675  -0.620  -0.601  -0.580
 -0.577  -0.549  -0.534  -0.527  -0.517  -0.506  -0.487  -0.482
 -0.473  -0.457  -0.452  -0.429  -0.400  -0.374  -0.360  -0.348
 -0.335  -0.331  -0.322  -0.309

          Ground-State Mulliken Net Atomic Charges

     Atom                 Charge (a.u.)
  ----------------------------------------
      1 C                    -0.971721
      2 H                     0.227517
      3 H                     0.205779
      4 H                     0.231112
      5 C                     0.673567
      6 C                    -0.300061
      7 H                     0.218760
      8 H                     0.157718
      9 C                     0.090759
     10 H                     0.178902
     11 H                     0.074718
     12 C                     0.178912
     13 O                    -0.696421
     14 O                    -0.693516
     15 O                    -0.253628
     16 O                    -0.273981
     17 O                    -0.545928
     18 O                    -0.854381
     19 H                     0.351892
  ----------------------------------------
  Sum of atomic charges =    -2.000000

                    Cartesian Multipole Moments
 -----------------------------------------------------------------
    Charge (ESU x 10^10)
                -9.6064
    Dipole Moment (Debye)
         X     -13.5177      Y      -0.0541      Z      -2.1523
       Tot      13.6881
    Quadrupole Moments (Debye-Ang)
        XX    -163.6256     XY      20.8495     YY     -83.7124
        XZ      17.1065     YZ      -8.0591     ZZ     -88.3483

             Standard Nuclear Orientation (Angstroms)
    I     Atom           X                Y                Z
 ----------------------------------------------------------------
    1      C      -2.9552780808     0.0727266929     0.5881341030
    2      H      -3.4088519667     0.3583754043    -0.3649762984
    3      H      -2.7566480762    -1.0008567032     0.5816067761
    4      H      -3.6542393835     0.2969114344     1.3987367828
    5      C      -1.6496156004     0.8293090544     0.8378800810
    6      C       1.0005611796    -0.8911134276    -0.0671632513
    7      H       1.1648288490    -1.9608241569     0.1082728381
    8      H       1.1985404572    -0.3432316776     0.8589180944
    9      C       1.8918823912    -0.3983170581    -1.2031786494
   10      H       1.6640726560    -0.9677414715    -2.1090934018
   11      H       1.6934380326     0.6612863184    -1.3824057812
   12      C       3.3663214478    -0.5921084372    -0.8194351357
   13      O       3.9177251408    -1.6689298837    -1.1693862454
   14      O       3.9085061929     0.3255625968    -0.1489596682
   15      O      -0.3870973251    -0.8057424425    -0.3731709812
   16      O      -0.7627910015     0.5696873373    -0.3787585602
   17      O      -1.9211065808     2.2229064541     0.5810653561
   18      O      -1.0453193446     0.6086275895     1.9579478694
   19      H      -1.2467415545     2.6874196576     1.0941543601
 ----------------------------------------------------------------

 Frequency:        19.37                  45.85                  52.99
 Force Cnst:      0.0025                 0.0084                 0.0098
 Red. Mass:      11.4655                 6.7824                 5.9132
 IR Intens:        0.597                  1.278                  2.097
 Frequency:        89.56                 123.88                 194.11
 Force Cnst:      0.0197                 0.0292                 0.1263
 Red. Mass:       4.1643                 3.2244                 5.6875
 IR Intens:        5.311                 13.211                 37.755
 Frequency:       196.83                 231.31                 277.72
 Force Cnst:      0.0804                 0.0354                 0.0551
 Red. Mass:       3.5243                 1.1221                 1.2133
 IR Intens:        9.686                  0.629                130.204
 Frequency:       318.28                 371.27                 402.97
 Force Cnst:      0.2627                 0.2882                 0.3487
 Red. Mass:       4.4011                 3.5486                 3.6443
 IR Intens:        0.795                  7.640                 12.398
 Frequency:       451.05                 462.54                 540.73
 Force Cnst:      0.7261                 0.4001                 0.7082
 Red. Mass:       6.0577                 3.1741                 4.1108
 IR Intens:       22.103                  1.676                 24.334
 Frequency:       568.78                 609.13                 671.96
 Force Cnst:      0.7922                 1.4044                 1.3338
 Red. Mass:       4.1565                 6.4245                 5.0136
 IR Intens:       48.487                 10.422                 87.634
 Frequency:       710.67                 780.97                 801.82
 Force Cnst:      1.5471                 2.0740                 0.5087
 Red. Mass:       5.1992                 5.7714                 1.3429
 IR Intens:      362.612                 18.154                  3.531
 Frequency:       820.55                 946.51                 956.87
 Force Cnst:      1.5311                 2.7470                 2.7369
 Red. Mass:       3.8596                 5.2043                 5.0735
 IR Intens:      198.411                  8.101                 26.612
 Frequency:       962.32                1064.45                1071.48
 Force Cnst:      1.0492                 2.7567                 1.3200
 Red. Mass:       1.9230                 4.1294                 1.9515
 IR Intens:      161.612                 17.037                 29.974
 Frequency:      1074.34                1095.64                1115.30
 Force Cnst:      1.2760                 2.0564                 1.5041
 Red. Mass:       1.8764                 2.9074                 2.0523
 IR Intens:      191.160                 68.612                236.025
 Frequency:      1216.26                1234.15                1273.31
 Force Cnst:      2.0840                 1.2799                 1.3779
 Red. Mass:       2.3910                 1.4263                 1.4424
 IR Intens:      193.742                 26.231                  2.748
 Frequency:      1315.26                1363.38                1394.23
 Force Cnst:      1.1232                 1.5336                 1.6202
 Red. Mass:       1.1020                 1.4003                 1.4146
 IR Intens:        2.279                122.060                 54.912
 Frequency:      1426.07                1442.15                1466.10
 Force Cnst:      5.3788                 3.5173                 1.3554
 Red. Mass:       4.4890                 2.8704                 1.0703
 IR Intens:      304.360                474.646                 13.479
 Frequency:      1472.05                1473.18                1488.54
 Force Cnst:      1.4817                 1.4193                 1.4906
 Red. Mass:       1.1605                 1.1100                 1.1418
 IR Intens:       11.808                 34.191                 23.189
 Frequency:      1586.10                3058.67                3061.08
 Force Cnst:     14.8110                 5.8299                 5.7220
 Red. Mass:       9.9924                 1.0577                 1.0364
 IR Intens:     1307.079                 46.356                 26.042
 Frequency:      3076.37                3112.49                3133.99
 Force Cnst:      5.9084                 6.3036                 6.3859
 Red. Mass:       1.0596                 1.1044                 1.1035
 IR Intens:       41.100                  9.170                 52.584
 Frequency:      3137.51                3151.35                3810.01
 Force Cnst:      6.4227                 6.4488                 9.1092
 Red. Mass:       1.1074                 1.1021                 1.0651
 IR Intens:       65.667                 35.979                 61.276

 STANDARD THERMODYNAMIC QUANTITIES AT   298.15 K  AND     1.00 ATM

   This Molecule has  0 Imaginary Frequencies
   Zero point vibrational energy:       86.806 kcal/mol

   Atom    1 Element C  Has Mass   12.00000
   Atom    2 Element H  Has Mass    1.00783
   Atom    3 Element H  Has Mass    1.00783
   Atom    4 Element H  Has Mass    1.00783
   Atom    5 Element C  Has Mass   12.00000
   Atom    6 Element C  Has Mass   12.00000
   Atom    7 Element H  Has Mass    1.00783
   Atom    8 Element H  Has Mass    1.00783
   Atom    9 Element C  Has Mass   12.00000
   Atom   10 Element H  Has Mass    1.00783
   Atom   11 Element H  Has Mass    1.00783
   Atom   12 Element C  Has Mass   12.00000
   Atom   13 Element O  Has Mass   15.99491
   Atom   14 Element O  Has Mass   15.99491
   Atom   15 Element O  Has Mass   15.99491
   Atom   16 Element O  Has Mass   15.99491
   Atom   17 Element O  Has Mass   15.99491
   Atom   18 Element O  Has Mass   15.99491
   Atom   19 Element H  Has Mass    1.00783
   Molecular Mass:   164.032100 amu
   Principal axes and moments of inertia in amu*Bohr^2:
                             1           2           3
    Eigenvalues --      664.03037  3991.37163  4220.33704
          X               0.92194     0.37013     0.11419
          Y              -0.27992     0.84041    -0.46406
          Z              -0.26772     0.39587     0.87841
   Rotational Symmetry Number is   1
   The Molecule is an Asymmetric Top
   Translational Enthalpy:        0.889 kcal/mol
   Rotational Enthalpy:           0.889 kcal/mol
   Vibrational Enthalpy:         92.480 kcal/mol
   gas constant (RT):             0.592 kcal/mol
   Translational Entropy:        41.193  cal/mol.K
   Rotational Entropy:           30.793  cal/mol.K
   Vibrational Entropy:          39.452  cal/mol.K

   Total Enthalpy:               94.850 kcal/mol
   Total Entropy:               111.437  cal/mol.K

 Total job time:  44641.24s(wall), 625260.86s(cpu)
        *  Thank you very much for using Q-Chem.  Have a nice day.  *
