 Q-Chem 5.0, Q-Chem, Inc., Pleasanton, CA (2017)
 Q-Chem 5.0.2 for Intel X86 EM64T Linux

User input:
--------------------------------------------------------------
$molecule
-3 1
C        0.4498159202    1.1922410740   -3.2709558192
O        0.2062437699    2.3612039992   -3.6812360169
O        0.9119312320    0.2557427828   -3.9729523743
C        0.1181956199    0.9161064348   -1.7920719326
H       -0.9736597233    0.9091300668   -1.7197448983
H        0.4503597865    1.7773984891   -1.2104901404
C        0.6993540473   -0.3722607612   -1.2235537857
H        1.7863257824   -0.3666794617   -1.3280459360
H        0.3294066881   -1.2270045495   -1.7927141959
C        0.3925673896   -0.6388580219    0.2474403013
C       -1.0999291698   -0.7760794151    0.5408408401
H       -1.6347730854    0.1311033842    0.2597090060
H       -1.2439088984   -0.9518107009    1.6058015072
H       -1.5170005374   -1.6151596245   -0.0187456023
O        1.0674390802   -1.8280767572    0.6386526602
O        0.9584004234    0.4357977033    1.0013413374
H        1.2653142922   -1.5864804552    1.5817527313
O        1.1304677543   -0.0301325763    2.3902676553
H       -0.2020436058    0.1830829591    3.4428336611
O       -0.9015816971    0.2127581748    4.1488879546
O       -1.0901688209    1.6827209891    4.3622166197
$end

$rem
jobtype               freq
method                b3lyp
basis                 def2-tzvpd
dft_d                 d3_bj
symmetry              off
sym_ignore            true
incdft                false
incfock               0
!scf_algorithm        diis_gdm
scf_convergence       8
thresh                14
unrestricted          true
!purecart             112
scf_guess             read
max_scf_cycles        1000
geom_opt_max_cycles   500
geom_opt_dmax         100
geom_opt_tol_gradient 10
solvent_method        pcm
ideriv                1
rpath_tol_displacement 1000
rpath_max_cycles      100
rpath_direction       1
$end

$pcm
theory              cosmo
method              iswig
Radii               bondi
vdwScale            1.20
hpoints             110
heavypoints         110
$end

$solvent
dielectric 78.400000
$end

--------------------------------------------------------------

   17    -723.0928412420      6.82E-09 Convergence criterion met
 Total energy in the final basis set = -723.09284124
   18    -723.0928406963      3.16E-09 Convergence criterion met
 Total energy in the final basis set = -723.09284070
   18    -723.0928406670      1.37E-09 Convergence criterion met
 Total energy in the final basis set = -723.09284067
   18    -723.0928399192      1.71E-09 Convergence criterion met
 Total energy in the final basis set = -723.09283992
   17    -723.0928399749      7.38E-09 Convergence criterion met
 Total energy in the final basis set = -723.09283997
   17    -723.0928400766      9.59E-09 Convergence criterion met
 Total energy in the final basis set = -723.09284008
   17    -723.0928404465      7.85E-09 Convergence criterion met
 Total energy in the final basis set = -723.09284045
   18    -723.0928411394      2.05E-09 Convergence criterion met
 Total energy in the final basis set = -723.09284086
   18    -723.0928407964      2.24E-09 Convergence criterion met
 Total energy in the final basis set = -723.09284080
   18    -723.0928412019      4.22E-09 Convergence criterion met
 Total energy in the final basis set = -723.09284120
   18    -723.0928412161      3.94E-09 Convergence criterion met
 Total energy in the final basis set = -723.09284122
   18    -723.0928410183      4.34E-09 Convergence criterion met
 Total energy in the final basis set = -723.09284102
   18    -723.0928406848      2.12E-09 Convergence criterion met
 Total energy in the final basis set = -723.09284068
   18    -723.0928412747      3.91E-09 Convergence criterion met
 Total energy in the final basis set = -723.09284127
   18    -723.0928411404      3.85E-09 Convergence criterion met
 Total energy in the final basis set = -723.09284114

                    Orbital Energies (a.u.)
 --------------------------------------------------------------

 Alpha MOs
 -- Occupied --
-19.131 -19.100 -19.091 -19.073 -19.057 -19.055 -19.044 -10.248
-10.243 -10.150 -10.150 -10.140  -1.057  -1.012  -0.975  -0.970
 -0.922  -0.815  -0.752  -0.738  -0.705  -0.641  -0.535  -0.500
 -0.482  -0.455  -0.449  -0.427  -0.423  -0.406  -0.402  -0.393
 -0.380  -0.361  -0.349  -0.343  -0.334  -0.331  -0.322  -0.305
 -0.300  -0.268  -0.247  -0.234  -0.226  -0.222  -0.198  -0.178
 -0.160

 Beta MOs
 -- Occupied --
-19.131 -19.100 -19.091 -19.073 -19.057 -19.055 -19.044 -10.248
-10.243 -10.150 -10.150 -10.140  -1.057  -1.012  -0.975  -0.970
 -0.922  -0.815  -0.752  -0.738  -0.705  -0.641  -0.535  -0.500
 -0.482  -0.455  -0.449  -0.427  -0.423  -0.406  -0.402  -0.393
 -0.380  -0.361  -0.349  -0.343  -0.334  -0.331  -0.322  -0.305
 -0.300  -0.268  -0.247  -0.234  -0.226  -0.222  -0.198  -0.178
 -0.160

          Ground-State Mulliken Net Atomic Charges

     Atom                 Charge (a.u.)    Spin (a.u.)
  --------------------------------------------------------
      1 C                     0.211670       0.000000
      2 O                    -0.781886       0.000000
      3 O                    -0.760227       0.000000
      4 C                    -0.427280      -0.000000
      5 H                     0.252098      -0.000000
      6 H                     0.229975       0.000000
      7 C                    -0.424316       0.000000
      8 H                     0.225024      -0.000000
      9 H                     0.193688      -0.000000
     10 C                     1.680751       0.000000
     11 C                    -1.790103       0.000000
     12 H                     0.358170      -0.000000
     13 H                     0.350008      -0.000000
     14 H                     0.304322       0.000000
     15 O                    -0.693639       0.000000
     16 O                    -0.302641       0.000000
     17 H                     0.387487      -0.000000
     18 O                    -1.004052       0.000000
     19 H                     0.385504      -0.000000
     20 O                    -0.490780      -0.000000
     21 O                    -0.903771       0.000000
  --------------------------------------------------------
  Sum of atomic charges =    -3.000000

                    Cartesian Multipole Moments
 -----------------------------------------------------------------
    Charge (ESU x 10^10)
               -14.4096
    Dipole Moment (Debye)
         X      -2.2701      Y     -12.9547      Z     -12.3234
       Tot      18.0234
    Quadrupole Moments (Debye-Ang)
        XX     -97.2254     XY       8.9558     YY    -117.8751
        XZ      32.6516     YZ      -6.9053     ZZ    -288.1684

             Standard Nuclear Orientation (Angstroms)
    I     Atom           X                Y                Z
 ----------------------------------------------------------------
    1      C       0.4498159202     1.1922410740    -3.2709558192
    2      O       0.2062437699     2.3612039992    -3.6812360169
    3      O       0.9119312320     0.2557427828    -3.9729523743
    4      C       0.1181956199     0.9161064348    -1.7920719326
    5      H      -0.9736597233     0.9091300668    -1.7197448983
    6      H       0.4503597865     1.7773984891    -1.2104901404
    7      C       0.6993540473    -0.3722607612    -1.2235537857
    8      H       1.7863257824    -0.3666794617    -1.3280459360
    9      H       0.3294066881    -1.2270045495    -1.7927141959
   10      C       0.3925673896    -0.6388580219     0.2474403013
   11      C      -1.0999291698    -0.7760794151     0.5408408401
   12      H      -1.6347730854     0.1311033842     0.2597090060
   13      H      -1.2439088984    -0.9518107009     1.6058015072
   14      H      -1.5170005374    -1.6151596245    -0.0187456023
   15      O       1.0674390802    -1.8280767572     0.6386526602
   16      O       0.9584004234     0.4357977033     1.0013413374
   17      H       1.2653142922    -1.5864804552     1.5817527313
   18      O       1.1304677543    -0.0301325763     2.3902676553
   19      H      -0.2020436058     0.1830829591     3.4428336611
   20      O      -0.9015816971     0.2127581748     4.1488879546
   21      O      -1.0901688209     1.6827209891     4.3622166197
 ----------------------------------------------------------------

 Frequency:        28.20                  33.84                  47.66
 Force Cnst:      0.0044                 0.0093                 0.0092
 Red. Mass:       9.4751                13.7418                 6.8634
 IR Intens:       12.739                  6.899                 27.338
 Frequency:        62.38                  76.96                  90.22
 Force Cnst:      0.0142                 0.0351                 0.0113
 Red. Mass:       6.2066                10.0448                 2.3482
 IR Intens:       15.573                  4.843                  5.206
 Frequency:       105.92                 144.59                 190.09
 Force Cnst:      0.0507                 0.0577                 0.1718
 Red. Mass:       7.6627                 4.6866                 8.0701
 IR Intens:        8.685                  3.215                  7.379
 Frequency:       214.22                 250.74                 270.49
 Force Cnst:      0.1398                 0.2578                 0.0471
 Red. Mass:       5.1707                 6.9598                 1.0928
 IR Intens:       20.800                 31.082                  1.860
 Frequency:       301.47                 340.90                 368.08
 Force Cnst:      0.2870                 0.2629                 0.2959
 Red. Mass:       5.3596                 3.8393                 3.7065
 IR Intens:       11.360                 10.310                 46.197
 Frequency:       430.11                 491.00                 538.85
 Force Cnst:      0.4015                 0.5261                 0.6591
 Red. Mass:       3.6841                 3.7037                 3.8525
 IR Intens:        5.516                 30.024                 13.048
 Frequency:       601.68                 609.63                 685.49
 Force Cnst:      0.5087                 0.8727                 0.5017
 Red. Mass:       2.3850                 3.9855                 1.8123
 IR Intens:       15.776                 50.501                 98.411
 Frequency:       699.23                 784.41                 794.09
 Force Cnst:      0.5410                 0.6057                 1.8143
 Red. Mass:       1.8781                 1.6707                 4.8833
 IR Intens:       50.739                  8.307                  4.060
 Frequency:       855.41                 871.39                 887.24
 Force Cnst:      5.8746                 0.5316                 1.9152
 Red. Mass:      13.6265                 1.1882                 4.1295
 IR Intens:        6.898                 88.520                 68.727
 Frequency:       894.56                 917.72                 949.58
 Force Cnst:      2.4325                 1.6059                 0.9812
 Red. Mass:       5.1592                 3.2363                 1.8470
 IR Intens:       20.445                 42.805                 14.864
 Frequency:       995.73                1068.86                1102.91
 Force Cnst:      1.2272                 1.9021                 1.3658
 Red. Mass:       2.1009                 2.8258                 1.9057
 IR Intens:       84.558                 20.914                 22.553
 Frequency:      1132.43                1174.23                1245.47
 Force Cnst:      2.0441                 1.2119                 1.7531
 Red. Mass:       2.7054                 1.4918                 1.9182
 IR Intens:      140.861                106.991                 49.718
 Frequency:      1271.65                1315.24                1365.28
 Force Cnst:      1.4015                 1.2037                 2.2589
 Red. Mass:       1.4710                 1.1810                 2.0568
 IR Intens:        1.857                 13.534                166.041
 Frequency:      1383.44                1385.06                1411.16
 Force Cnst:      1.6209                 3.4269                 1.5326
 Red. Mass:       1.4374                 3.0319                 1.3063
 IR Intens:      135.286                309.072                240.809
 Frequency:      1418.72                1451.78                1472.79
 Force Cnst:      1.4354                 1.3798                 1.3694
 Red. Mass:       1.2104                 1.1111                 1.0715
 IR Intens:       17.755                 21.462                  2.804
 Frequency:      1481.86                1487.62                1547.00
 Force Cnst:      1.4260                 1.4145                12.5755
 Red. Mass:       1.1022                 1.0848                 8.9185
 IR Intens:       43.219                  6.869               1135.786
 Frequency:      3034.54                3042.99                3047.51
 Force Cnst:      5.7572                 5.6713                 5.7953
 Red. Mass:       1.0612                 1.0395                 1.0591
 IR Intens:        5.217                 43.641                 56.205
 Frequency:      3072.37                3093.64                3107.90
 Force Cnst:      6.0935                 6.2143                 6.2674
 Red. Mass:       1.0956                 1.1020                 1.1013
 IR Intens:        6.235                 78.161                 45.954
 Frequency:      3126.48                3156.14                3263.65
 Force Cnst:      6.3466                 6.3131                 6.6748
 Red. Mass:       1.1020                 1.0757                 1.0636
 IR Intens:       30.600               1936.169                373.679

 STANDARD THERMODYNAMIC QUANTITIES AT   298.15 K  AND     1.00 ATM

   This Molecule has  0 Imaginary Frequencies
   Zero point vibrational energy:       93.197 kcal/mol

   Atom    1 Element C  Has Mass   12.00000
   Atom    2 Element O  Has Mass   15.99491
   Atom    3 Element O  Has Mass   15.99491
   Atom    4 Element C  Has Mass   12.00000
   Atom    5 Element H  Has Mass    1.00783
   Atom    6 Element H  Has Mass    1.00783
   Atom    7 Element C  Has Mass   12.00000
   Atom    8 Element H  Has Mass    1.00783
   Atom    9 Element H  Has Mass    1.00783
   Atom   10 Element C  Has Mass   12.00000
   Atom   11 Element C  Has Mass   12.00000
   Atom   12 Element H  Has Mass    1.00783
   Atom   13 Element H  Has Mass    1.00783
   Atom   14 Element H  Has Mass    1.00783
   Atom   15 Element O  Has Mass   15.99491
   Atom   16 Element O  Has Mass   15.99491
   Atom   17 Element H  Has Mass    1.00783
   Atom   18 Element O  Has Mass   15.99491
   Atom   19 Element H  Has Mass    1.00783
   Atom   20 Element O  Has Mass   15.99491
   Atom   21 Element O  Has Mass   15.99491
   Molecular Mass:   181.034840 amu
   Principal axes and moments of inertia in amu*Bohr^2:
                             1           2           3
    Eigenvalues --     1157.99814  5318.18110  5925.61969
          X              -0.13427    -0.39274     0.90980
          Y              -0.08895     0.91918     0.38366
          Z               0.98695     0.02941     0.15835
   Rotational Symmetry Number is   1
   The Molecule is an Asymmetric Top
   Translational Enthalpy:        0.889 kcal/mol
   Rotational Enthalpy:           0.889 kcal/mol
   Vibrational Enthalpy:        100.401 kcal/mol
   gas constant (RT):             0.592 kcal/mol
   Translational Entropy:        41.487  cal/mol.K
   Rotational Entropy:           31.967  cal/mol.K
   Vibrational Entropy:          51.281  cal/mol.K

   Total Enthalpy:              102.771 kcal/mol
   Total Entropy:               124.735  cal/mol.K

 Total job time:  110009.48s(wall), 791882.76s(cpu)
        *  Thank you very much for using Q-Chem.  Have a nice day.  *
