 Q-Chem 5.0, Q-Chem, Inc., Pleasanton, CA (2017)
 Q-Chem 5.0.2 for Intel X86 EM64T Linux

User input:
--------------------------------------------------------------
$molecule
-2 1
C        0.5666024865    0.8900004389   -0.3583157791
C       -0.8355972628    0.5244283024   -0.0686954089
H        0.6278829333    1.8530259529   -0.8786560973
H        1.2044600094    0.9411939556    0.5384487943
H       -1.6327781502    1.0653968478   -0.5751473525
C       -1.1722808678   -0.5821744546    0.7456869715
O       -2.3893429964   -0.8731436534    1.0522543753
O       -0.1949958394   -1.3487470644    1.1960988742
O        1.3069540668    0.0023983392   -1.2723717280
O        1.6380245617   -1.1986257130   -0.5467673913
H        0.8834729656   -1.2788278258    0.1670543139
$end

$rem
jobtype               freq
method                wb97x-v
basis                 def2-tzvpd
symmetry              off
sym_ignore            true
incdft                false
incfock               0
!scf_algorithm        diis_gdm
scf_convergence       8
thresh                14
!purecart             112
max_scf_cycles        1000
geom_opt_max_cycles   500
geom_opt_dmax         100
geom_opt_tol_gradient 10
solvent_method        pcm
ideriv                1
rpath_tol_displacement 1000
rpath_max_cycles      100
rpath_direction       1
!scf_guess            read
scf_guess             read
$end

$pcm
theory              cosmo
method              iswig
Radii               bondi
vdwScale            1.20
hpoints             110
heavypoints         110
$end

$solvent
dielectric 78.400000
$end

--------------------------------------------------------------

   18    -417.8026553016      3.55E-09 Convergence criterion met
 Total energy in the final basis set = -417.80265530
   16    -417.8026547485      7.43E-09 Convergence criterion met
 Total energy in the final basis set = -417.80265475
   15    -417.8026542045      9.96E-09 Convergence criterion met
 Total energy in the final basis set = -417.80265420
   15    -417.8026542427      5.27E-09 Convergence criterion met
 Total energy in the final basis set = -417.80265424
   15    -417.8026545265      7.08E-09 Convergence criterion met
 Total energy in the final basis set = -417.80265453
   15    -417.8026542126      6.66E-09 Convergence criterion met
 Total energy in the final basis set = -417.80265421
   15    -417.8026546296      8.19E-09 Convergence criterion met
 Total energy in the final basis set = -417.80265463
   15    -417.8026541858      7.54E-09 Convergence criterion met
 Total energy in the final basis set = -417.80265494
   15    -417.8026547676      6.95E-09 Convergence criterion met
 Total energy in the final basis set = -417.80265477
   16    -417.8026552184      4.19E-09 Convergence criterion met
 Total energy in the final basis set = -417.80265522
   17    -417.8026549054      6.08E-10 Convergence criterion met
 Total energy in the final basis set = -417.80265491
   17    -417.8026551511      1.12E-09 Convergence criterion met
 Total energy in the final basis set = -417.80265515
   17    -417.8026551470      1.66E-09 Convergence criterion met
 Total energy in the final basis set = -417.80265515
   17    -417.8026550260      1.45E-09 Convergence criterion met
 Total energy in the final basis set = -417.80265503
   16    -417.8026551887      5.05E-09 Convergence criterion met
 Total energy in the final basis set = -417.80265519

                    Orbital Energies (a.u.)
 --------------------------------------------------------------

 Alpha MOs
 -- Occupied --
-19.226 -19.207 -19.120 -19.108 -10.308 -10.282 -10.176  -1.198
 -1.103  -1.011  -0.972  -0.824  -0.717  -0.599  -0.583  -0.555
 -0.526  -0.494  -0.475  -0.467  -0.441  -0.429  -0.410  -0.334
 -0.329  -0.315  -0.300  -0.232

          Ground-State Mulliken Net Atomic Charges

     Atom                 Charge (a.u.)
  ----------------------------------------
      1 C                    -0.349393
      2 C                    -0.583002
      3 H                     0.212156
      4 H                     0.143027
      5 H                     0.308563
      6 C                     0.274370
      7 O                    -0.800936
      8 O                    -0.801145
      9 O                    -0.266054
     10 O                    -0.477200
     11 H                     0.339615
  ----------------------------------------
  Sum of atomic charges =    -2.000000

                    Cartesian Multipole Moments
 -----------------------------------------------------------------
    Charge (ESU x 10^10)
                -9.6064
    Dipole Moment (Debye)
         X       6.1120      Y       8.0953      Z      -4.0572
       Tot      10.9248
    Quadrupole Moments (Debye-Ang)
        XX     -79.8875     XY      -3.5424     YY     -58.8955
        XZ      15.2867     YZ       6.0446     ZZ     -61.4414

             Standard Nuclear Orientation (Angstroms)
    I     Atom           X                Y                Z
 ----------------------------------------------------------------
    1      C       0.5666024865     0.8900004389    -0.3583157791
    2      C      -0.8355972628     0.5244283024    -0.0686954089
    3      H       0.6278829333     1.8530259529    -0.8786560973
    4      H       1.2044600094     0.9411939556     0.5384487943
    5      H      -1.6327781502     1.0653968478    -0.5751473525
    6      C      -1.1722808678    -0.5821744546     0.7456869715
    7      O      -2.3893429964    -0.8731436534     1.0522543753
    8      O      -0.1949958394    -1.3487470644     1.1960988742
    9      O       1.3069540668     0.0023983392    -1.2723717280
   10      O       1.6380245617    -1.1986257130    -0.5467673913
   11      H       0.8834729656    -1.2788278258     0.1670543139
 ----------------------------------------------------------------

 Frequency:        99.93                 123.92                 258.17
 Force Cnst:      0.0620                 0.1003                 0.3083
 Red. Mass:      10.5355                11.0844                 7.8501
 IR Intens:        0.215                 14.049                111.528
 Frequency:       285.24                 412.26                 475.89
 Force Cnst:      0.2085                 0.3469                 0.1657
 Red. Mass:       4.3489                 3.4639                 1.2420
 IR Intens:        7.534                 42.709                157.222
 Frequency:       498.90                 641.99                 673.20
 Force Cnst:      0.5892                 1.1964                 1.1949
 Red. Mass:       4.0179                 4.9267                 4.4749
 IR Intens:       27.771                108.505                 10.346
 Frequency:       803.94                 818.68                 905.49
 Force Cnst:      3.2029                 3.3988                 1.7072
 Red. Mass:       8.4112                 8.6070                 3.5341
 IR Intens:       52.919                177.465                 59.436
 Frequency:       971.99                1016.66                1052.55
 Force Cnst:      1.1516                 1.0712                 1.5085
 Red. Mass:       2.0689                 1.7590                 2.3110
 IR Intens:       48.185                 90.844                152.980
 Frequency:      1139.95                1271.08                1294.63
 Force Cnst:      1.8142                 2.0733                 1.2602
 Red. Mass:       2.3695                 2.1780                 1.2761
 IR Intens:       56.307                535.976                 35.390
 Frequency:      1341.71                1364.16                1448.37
 Force Cnst:      3.0981                 1.6618                 1.5425
 Red. Mass:       2.9210                 1.5157                 1.2480
 IR Intens:      510.524                513.193                195.291
 Frequency:      1470.54                1696.98                2344.11
 Force Cnst:      3.9309                 1.8218                 3.6391
 Red. Mass:       3.0852                 1.0738                 1.1241
 IR Intens:      987.991                143.877               2476.087
 Frequency:      2984.13                3079.49                3152.44
 Force Cnst:      5.6012                 6.1122                 6.3741
 Red. Mass:       1.0676                 1.0939                 1.0886
 IR Intens:      156.394                 57.859                 85.854

 STANDARD THERMODYNAMIC QUANTITIES AT   298.15 K  AND     1.00 ATM

   This Molecule has  0 Imaginary Frequencies
   Zero point vibrational energy:       45.212 kcal/mol

   Atom    1 Element C  Has Mass   12.00000
   Atom    2 Element C  Has Mass   12.00000
   Atom    3 Element H  Has Mass    1.00783
   Atom    4 Element H  Has Mass    1.00783
   Atom    5 Element H  Has Mass    1.00783
   Atom    6 Element C  Has Mass   12.00000
   Atom    7 Element O  Has Mass   15.99491
   Atom    8 Element O  Has Mass   15.99491
   Atom    9 Element O  Has Mass   15.99491
   Atom   10 Element O  Has Mass   15.99491
   Atom   11 Element H  Has Mass    1.00783
   Molecular Mass:   104.010960 amu
   Principal axes and moments of inertia in amu*Bohr^2:
                             1           2           3
    Eigenvalues --      334.30486   948.73970  1191.35747
          X               0.85198    -0.34574     0.39318
          Y               0.15222     0.88209     0.44582
          Z              -0.50095    -0.31998     0.80415
   Rotational Symmetry Number is   1
   The Molecule is an Asymmetric Top
   Translational Enthalpy:        0.889 kcal/mol
   Rotational Enthalpy:           0.889 kcal/mol
   Vibrational Enthalpy:         47.567 kcal/mol
   gas constant (RT):             0.592 kcal/mol
   Translational Entropy:        39.835  cal/mol.K
   Rotational Entropy:           27.426  cal/mol.K
   Vibrational Entropy:          13.683  cal/mol.K

   Total Enthalpy:               49.937 kcal/mol
   Total Entropy:                80.945  cal/mol.K

 Total job time:  6863.95s(wall), 98208.80s(cpu)
        *  Thank you very much for using Q-Chem.  Have a nice day.  *
