 Q-Chem 5.0, Q-Chem, Inc., Pleasanton, CA (2017)
 Q-Chem 5.0.2 for Intel X86 EM64T Linux

User input:
--------------------------------------------------------------
$molecule
-2 1
C       -2.4969400900    0.6916302414   -1.1181481305
H       -2.6809200399    1.5449913314   -0.4603702744
H       -2.1174457264    1.0572767904   -2.0755443337
H       -3.4318804402    0.1524525555   -1.2818162152
C       -1.4852051477   -0.2440540859   -0.4855285227
C        0.7873991051   -0.1488199785    0.3092537118
H        1.0500667530   -1.0671161440   -0.2268171969
H        0.4819538620   -0.4272912544    1.3225333815
C        1.9632896160    0.8069449108    0.3420973993
H        1.6749875569    1.7347264436    0.8494997924
H        2.2446366637    1.0887865698   -0.6793302810
C        3.2182080858    0.2600927633    1.0396191339
O       -1.9772959547   -0.6245814037    0.8044944612
O       -1.2876800778   -1.3958884729   -1.2106069046
H       -1.3601116958   -2.0614525151   -0.4147688838
O       -0.2909486750    0.5123024199   -0.3526121249
O        4.2001168001    1.0467683745    1.1054672795
O        3.1880135203   -0.9136488893    1.4898414867
O       -1.6737896154   -2.0240306769    1.0375159477
$end

$rem
jobtype               freq
method                wb97x-v
basis                 def2-tzvpd
symmetry              off
sym_ignore            true
unrestricted          false
incdft                false
incfock               0
!scf_algorithm        diis_gdm
scf_convergence       8
thresh                14
!purecart             112
max_scf_cycles        1000
geom_opt_max_cycles   900
geom_opt_dmax         100
geom_opt_tol_gradient 10
solvent_method        pcm
ideriv                1
rpath_tol_displacement 1000
rpath_max_cycles      100
rpath_direction       1
!scf_guess            read
scf_guess             read
$end

$pcm
theory              cosmo
method              iswig
Radii               bondi
vdwScale            1.20
hpoints             110
heavypoints         110
$end

$solvent
dielectric 78.400000
$end

--------------------------------------------------------------

   17    -646.9621021322      4.87E-09 Convergence criterion met
 Total energy in the final basis set = -646.96210213
   16    -646.9621011355      3.32E-09 Convergence criterion met
 Total energy in the final basis set = -646.96210114
   15    -646.9621011294      3.18E-09 Convergence criterion met
 Total energy in the final basis set = -646.96210113
   15    -646.9621011356      6.99E-09 Convergence criterion met
 Total energy in the final basis set = -646.96210114
   15    -646.9621011262      3.31E-09 Convergence criterion met
 Total energy in the final basis set = -646.96210113
   15    -646.9621010956      6.79E-09 Convergence criterion met
 Total energy in the final basis set = -646.96210110
   15    -646.9621011158      3.54E-09 Convergence criterion met
 Total energy in the final basis set = -646.96210112
   16    -646.9621020373      3.02E-09 Convergence criterion met
 Total energy in the final basis set = -646.96210194
   15    -646.9621019340      6.01E-09 Convergence criterion met
 Total energy in the final basis set = -646.96210193
   14    -646.9621020722      7.38E-09 Convergence criterion met
 Total energy in the final basis set = -646.96210207
   16    -646.9621020767      3.20E-09 Convergence criterion met
 Total energy in the final basis set = -646.96210208
   14    -646.9621016576      7.54E-09 Convergence criterion met
 Total energy in the final basis set = -646.96210166
   15    -646.9621016713      4.91E-09 Convergence criterion met
 Total energy in the final basis set = -646.96210167
   15    -646.9621019554      8.27E-09 Convergence criterion met
 Total energy in the final basis set = -646.96210196
   16    -646.9621019530      2.69E-09 Convergence criterion met
 Total energy in the final basis set = -646.96210195

                    Orbital Energies (a.u.)
 --------------------------------------------------------------

 Alpha MOs
 -- Occupied --
-19.221 -19.201 -19.181 -19.162 -19.141 -19.138 -10.390 -10.342
-10.291 -10.248 -10.246  -1.223  -1.144  -1.138  -1.100  -1.050
 -0.940  -0.878  -0.837  -0.744  -0.674  -0.632  -0.616  -0.591
 -0.578  -0.564  -0.528  -0.526  -0.510  -0.506  -0.488  -0.482
 -0.460  -0.450  -0.435  -0.426  -0.418  -0.389  -0.369  -0.347
 -0.336  -0.332  -0.331  -0.290

          Ground-State Mulliken Net Atomic Charges

     Atom                 Charge (a.u.)
  ----------------------------------------
      1 C                    -1.170393
      2 H                     0.236119
      3 H                     0.249824
      4 H                     0.254150
      5 C                     0.713630
      6 C                    -0.236829
      7 H                     0.183369
      8 H                     0.188357
      9 C                    -0.084527
     10 H                     0.237183
     11 H                     0.243388
     12 C                     0.040826
     13 O                    -0.231843
     14 O                    -0.590941
     15 H                     0.393804
     16 O                    -0.266419
     17 O                    -0.708089
     18 O                    -0.689455
     19 O                    -0.762154
  ----------------------------------------
  Sum of atomic charges =    -2.000000

                    Cartesian Multipole Moments
 -----------------------------------------------------------------
    Charge (ESU x 10^10)
                -9.6064
    Dipole Moment (Debye)
         X     -11.1783      Y       6.8413      Z      -9.0660
       Tot      15.9358
    Quadrupole Moments (Debye-Ang)
        XX    -160.0470     XY     -17.0423     YY     -91.1245
        XZ     -20.1092     YZ       6.6722     ZZ     -88.6763

             Standard Nuclear Orientation (Angstroms)
    I     Atom           X                Y                Z
 ----------------------------------------------------------------
    1      C      -2.4969400900     0.6916302414    -1.1181481305
    2      H      -2.6809200399     1.5449913314    -0.4603702744
    3      H      -2.1174457264     1.0572767904    -2.0755443337
    4      H      -3.4318804402     0.1524525555    -1.2818162152
    5      C      -1.4852051477    -0.2440540859    -0.4855285227
    6      C       0.7873991051    -0.1488199785     0.3092537118
    7      H       1.0500667530    -1.0671161440    -0.2268171969
    8      H       0.4819538620    -0.4272912544     1.3225333815
    9      C       1.9632896160     0.8069449108     0.3420973993
   10      H       1.6749875569     1.7347264436     0.8494997924
   11      H       2.2446366637     1.0887865698    -0.6793302810
   12      C       3.2182080858     0.2600927633     1.0396191339
   13      O      -1.9772959547    -0.6245814037     0.8044944612
   14      O      -1.2876800778    -1.3958884729    -1.2106069046
   15      H      -1.3601116958    -2.0614525151    -0.4147688838
   16      O      -0.2909486750     0.5123024199    -0.3526121249
   17      O       4.2001168001     1.0467683745     1.1054672795
   18      O       3.1880135203    -0.9136488893     1.4898414867
   19      O      -1.6737896154    -2.0240306769     1.0375159477
 ----------------------------------------------------------------

 Frequency:        35.97                  61.91                  74.56
 Force Cnst:      0.0090                 0.0134                 0.0066
 Red. Mass:      11.8664                 5.9497                 2.0204
 IR Intens:        1.046                  5.569                  1.507
 Frequency:        86.49                 130.23                 168.52
 Force Cnst:      0.0346                 0.0810                 0.0605
 Red. Mass:       7.8453                 8.1023                 3.6184
 IR Intens:        3.660                  5.085                 30.175
 Frequency:       229.41                 233.70                 262.72
 Force Cnst:      0.0339                 0.1394                 0.3064
 Red. Mass:       1.0932                 4.3323                 7.5358
 IR Intens:        0.735                 19.065                  1.519
 Frequency:       337.61                 382.41                 403.37
 Force Cnst:      0.2372                 0.3150                 0.4503
 Red. Mass:       3.5329                 3.6558                 4.6973
 IR Intens:       13.827                105.016                 85.478
 Frequency:       507.14                 515.84                 595.76
 Force Cnst:      0.7899                 1.0153                 0.4123
 Red. Mass:       5.2129                 6.4760                 1.9716
 IR Intens:       28.339                  2.485                  7.292
 Frequency:       633.35                 637.28                 703.74
 Force Cnst:      1.4799                 1.0919                 1.6935
 Red. Mass:       6.2620                 4.5631                 5.8037
 IR Intens:       12.291                  4.752                 43.634
 Frequency:       819.77                 845.38                 878.70
 Force Cnst:      0.5790                 2.4859                 1.9359
 Red. Mass:       1.4623                 5.9037                 4.2555
 IR Intens:        7.912                 51.046                109.588
 Frequency:       907.85                 947.53                 960.26
 Force Cnst:      0.6345                 1.9429                 2.2245
 Red. Mass:       1.3067                 3.6730                 4.0945
 IR Intens:       47.154                 14.227                 24.277
 Frequency:       978.42                1066.82                1090.00
 Force Cnst:      1.2593                 1.7995                 1.3567
 Red. Mass:       2.2327                 2.6836                 1.9381
 IR Intens:       94.000                184.119                  8.601
 Frequency:      1100.08                1120.72                1156.14
 Force Cnst:      2.4728                 1.9224                 2.2012
 Red. Mass:       3.4681                 2.5977                 2.7951
 IR Intens:      153.501                 25.030                383.926
 Frequency:      1225.83                1283.49                1301.03
 Force Cnst:      1.0688                 1.7224                 1.2633
 Red. Mass:       1.2072                 1.7746                 1.2667
 IR Intens:        1.634                 57.292                 46.533
 Frequency:      1303.62                1402.01                1413.86
 Force Cnst:      1.9627                 1.6991                 1.8954
 Red. Mass:       1.9603                 1.4672                 1.6093
 IR Intens:      139.654                 84.254                114.541
 Frequency:      1433.57                1448.54                1460.12
 Force Cnst:      5.1560                 1.6989                 1.5880
 Red. Mass:       4.2582                 1.3742                 1.2642
 IR Intens:      325.523                602.987                 23.445
 Frequency:      1468.89                1479.23                1512.51
 Force Cnst:      1.3413                 1.5031                 1.4795
 Red. Mass:       1.0551                 1.1660                 1.0976
 IR Intens:        6.249                250.838                 15.692
 Frequency:      1588.13                2593.95                3057.78
 Force Cnst:     15.3595                 4.2038                 5.8407
 Red. Mass:      10.3361                 1.0604                 1.0602
 IR Intens:     1285.069               1023.899                  7.340
 Frequency:      3059.98                3066.37                3091.86
 Force Cnst:      5.8260                 5.7501                 6.2040
 Red. Mass:       1.0560                 1.0380                 1.1015
 IR Intens:       64.749                 44.131                  2.974
 Frequency:      3115.48                3146.68                3156.21
 Force Cnst:      6.3254                 6.4368                 6.4811
 Red. Mass:       1.1061                 1.1034                 1.1043
 IR Intens:       83.151                 32.706                 33.808

 STANDARD THERMODYNAMIC QUANTITIES AT   298.15 K  AND     1.00 ATM

   This Molecule has  0 Imaginary Frequencies
   Zero point vibrational energy:       86.462 kcal/mol

   Atom    1 Element C  Has Mass   12.00000
   Atom    2 Element H  Has Mass    1.00783
   Atom    3 Element H  Has Mass    1.00783
   Atom    4 Element H  Has Mass    1.00783
   Atom    5 Element C  Has Mass   12.00000
   Atom    6 Element C  Has Mass   12.00000
   Atom    7 Element H  Has Mass    1.00783
   Atom    8 Element H  Has Mass    1.00783
   Atom    9 Element C  Has Mass   12.00000
   Atom   10 Element H  Has Mass    1.00783
   Atom   11 Element H  Has Mass    1.00783
   Atom   12 Element C  Has Mass   12.00000
   Atom   13 Element O  Has Mass   15.99491
   Atom   14 Element O  Has Mass   15.99491
   Atom   15 Element H  Has Mass    1.00783
   Atom   16 Element O  Has Mass   15.99491
   Atom   17 Element O  Has Mass   15.99491
   Atom   18 Element O  Has Mass   15.99491
   Atom   19 Element O  Has Mass   15.99491
   Molecular Mass:   164.032100 amu
   Principal axes and moments of inertia in amu*Bohr^2:
                             1           2           3
    Eigenvalues --      773.30724  3597.78754  4013.12693
          X               0.95413    -0.01139    -0.29918
          Y               0.17124     0.84046     0.51411
          Z               0.24559    -0.54176     0.80385
   Rotational Symmetry Number is   1
   The Molecule is an Asymmetric Top
   Translational Enthalpy:        0.889 kcal/mol
   Rotational Enthalpy:           0.889 kcal/mol
   Vibrational Enthalpy:         91.860 kcal/mol
   gas constant (RT):             0.592 kcal/mol
   Translational Entropy:        41.193  cal/mol.K
   Rotational Entropy:           30.791  cal/mol.K
   Vibrational Entropy:          35.942  cal/mol.K

   Total Enthalpy:               94.230 kcal/mol
   Total Entropy:               107.926  cal/mol.K

 Total job time:  56552.00s(wall), 686439.53s(cpu)
        *  Thank you very much for using Q-Chem.  Have a nice day.  *
