 Q-Chem 5.0, Q-Chem, Inc., Pleasanton, CA (2017)
 Q-Chem 5.0.2 for Intel X86 EM64T Linux

User input:
--------------------------------------------------------------
$molecule
-3 1
C        0.3808550800    0.5166521633   -2.0571849685
C        0.6533999427    0.6900341199   -3.5625872368
O        0.4134572655    1.8355723364   -4.0332468201
O        1.0894286805   -0.2887240608   -4.2200489313
C        0.6385360142   -0.8802305461   -1.5198776672
H       -0.6575618227    0.8198425060   -1.8868134910
H        1.0035284536    1.2425284692   -1.5252642670
C        0.4312888356   -0.9611143777    0.0815469938
H        1.6736505799   -1.1735966256   -1.7109482120
H       -0.0187038409   -1.6116553825   -1.9949513569
C       -1.0924063491   -0.7454559366    0.3691001882
H       -1.3583780191    0.2933231497    0.1638916135
H       -1.2719183496   -0.9482686509    1.4287962731
H       -1.7110218662   -1.4133396202   -0.2355348943
O        0.7018853989   -2.2733213551    0.2941946351
O        1.1966821872   -0.0680415780    0.7170827518
O        1.1170172897   -0.3902027466    3.3531789191
H        1.1323311670   -0.2762832975    2.3583251868
O       -1.2761150540    0.7180523828    4.1739317051
H        0.2583844693   -0.0097935682    3.6512960986
O       -1.3175773202    1.8268483969    3.4563888748
$end

$rem
jobtype               freq
method                wb97x-v
basis                 def2-tzvpd
symmetry              off
sym_ignore            true
incdft                false
incfock               0
!scf_algorithm        diis_gdm
scf_convergence       8
thresh                14
unrestricted          true
!purecart             112
max_scf_cycles        1000
geom_opt_max_cycles   500
geom_opt_dmax         100
geom_opt_tol_gradient 10
solvent_method        pcm
ideriv                1
rpath_tol_displacement 1000
rpath_max_cycles      100
rpath_direction       1
scf_guess             read
$end

$pcm
theory              cosmo
method              iswig
Radii               bondi
vdwScale            1.20
hpoints             110
heavypoints         110
$end

$solvent
dielectric 78.400000
$end

--------------------------------------------------------------

   23    -722.8366456798      9.53E-09 Convergence criterion met
 Total energy in the final basis set = -722.83664568
   26    -722.8366446830      9.79E-09 Convergence criterion met
 Total energy in the final basis set = -722.83664468
   28    -722.8366446674      7.65E-09 Convergence criterion met
 Total energy in the final basis set = -722.83664467
   23    -722.8366447542      9.74E-09 Convergence criterion met
 Total energy in the final basis set = -722.83664475
   27    -722.8366446649      9.80E-09 Convergence criterion met
 Total energy in the final basis set = -722.83664466
   25    -722.8366448139      9.89E-09 Convergence criterion met
 Total energy in the final basis set = -722.83664481
   28    -722.8366448905      7.35E-09 Convergence criterion met
 Total energy in the final basis set = -722.83664489
   23    -722.8366451258      9.33E-09 Convergence criterion met
 Total energy in the final basis set = -722.83664550
   29    -722.8366455390      7.15E-09 Convergence criterion met
 Total energy in the final basis set = -722.83664554
   23    -722.8366456840      5.21E-09 Convergence criterion met
 Total energy in the final basis set = -722.83664568
   23    -722.8366456614      9.74E-09 Convergence criterion met
 Total energy in the final basis set = -722.83664566
   25    -722.8366450568      9.77E-09 Convergence criterion met
 Total energy in the final basis set = -722.83664506
   28    -722.8366450423      8.10E-09 Convergence criterion met
 Total energy in the final basis set = -722.83664504
   23    -722.8366454129      8.62E-09 Convergence criterion met
 Total energy in the final basis set = -722.83664541
   28    -722.8366454206      7.76E-09 Convergence criterion met
 Total energy in the final basis set = -722.83664542

                    Orbital Energies (a.u.)
 --------------------------------------------------------------

 Alpha MOs
 -- Occupied --
-19.192 -19.190 -19.188 -19.155 -19.139 -19.136 -19.109 -10.340
-10.331 -10.258 -10.244 -10.244  -1.173  -1.142  -1.135  -1.074
 -1.047  -1.025  -0.888  -0.826  -0.802  -0.756  -0.631  -0.604
 -0.590  -0.565  -0.558  -0.539  -0.524  -0.513  -0.509  -0.493
 -0.484  -0.480  -0.469  -0.457  -0.441  -0.439  -0.422  -0.421
 -0.391  -0.381  -0.365  -0.345  -0.333  -0.331  -0.319  -0.297
 -0.258

 Beta MOs
 -- Occupied --
-19.202 -19.201 -19.178 -19.155 -19.139 -19.136 -19.108 -10.339
-10.332 -10.255 -10.244 -10.243  -1.202  -1.141  -1.112  -1.073
 -1.047  -1.007  -0.882  -0.847  -0.818  -0.746  -0.620  -0.601
 -0.587  -0.563  -0.547  -0.526  -0.518  -0.516  -0.509  -0.507
 -0.503  -0.489  -0.477  -0.465  -0.450  -0.440  -0.433  -0.419
 -0.381  -0.350  -0.345  -0.333  -0.327  -0.314  -0.312  -0.301
 -0.275

          Ground-State Mulliken Net Atomic Charges

     Atom                 Charge (a.u.)    Spin (a.u.)
  --------------------------------------------------------
      1 C                    -0.217073       0.030455
      2 C                    -0.003780       0.011059
      3 O                    -0.711734       0.006529
      4 O                    -0.690829      -0.000292
      5 C                    -0.296802       0.135278
      6 H                     0.180232       0.000120
      7 H                     0.186639       0.000607
      8 C                     1.011750      -0.071522
      9 H                     0.219231      -0.006055
     10 H                     0.236920      -0.004900
     11 C                    -1.026004       0.134177
     12 H                     0.227382       0.000042
     13 H                     0.209182      -0.006596
     14 H                     0.243806      -0.005088
     15 O                    -0.550773       0.699605
     16 O                    -0.957194       0.074157
     17 O                    -0.709385       0.000674
     18 H                     0.291534       0.000512
     19 O                    -0.500625      -0.478860
     20 H                     0.314685       0.000570
     21 O                    -0.457161      -0.520474
  --------------------------------------------------------
  Sum of atomic charges =    -3.000000

                    Cartesian Multipole Moments
 -----------------------------------------------------------------
    Charge (ESU x 10^10)
               -14.4096
    Dipole Moment (Debye)
         X      -6.5271      Y      -4.6576      Z      -3.4724
       Tot       8.7381
    Quadrupole Moments (Debye-Ang)
        XX    -101.2467     XY      12.5359     YY    -114.3120
        XZ      25.0808     YZ       3.4824     ZZ    -257.8620

             Standard Nuclear Orientation (Angstroms)
    I     Atom           X                Y                Z
 ----------------------------------------------------------------
    1      C       0.3808550800     0.5166521633    -2.0571849685
    2      C       0.6533999427     0.6900341199    -3.5625872368
    3      O       0.4134572655     1.8355723364    -4.0332468201
    4      O       1.0894286805    -0.2887240608    -4.2200489313
    5      C       0.6385360142    -0.8802305461    -1.5198776672
    6      H      -0.6575618227     0.8198425060    -1.8868134910
    7      H       1.0035284536     1.2425284692    -1.5252642670
    8      C       0.4312888356    -0.9611143777     0.0815469938
    9      H       1.6736505799    -1.1735966256    -1.7109482120
   10      H      -0.0187038409    -1.6116553825    -1.9949513569
   11      C      -1.0924063491    -0.7454559366     0.3691001882
   12      H      -1.3583780191     0.2933231497     0.1638916135
   13      H      -1.2719183496    -0.9482686509     1.4287962731
   14      H      -1.7110218662    -1.4133396202    -0.2355348943
   15      O       0.7018853989    -2.2733213551     0.2941946351
   16      O       1.1966821872    -0.0680415780     0.7170827518
   17      O       1.1170172897    -0.3902027466     3.3531789191
   18      H       1.1323311670    -0.2762832975     2.3583251868
   19      O      -1.2761150540     0.7180523828     4.1739317051
   20      H       0.2583844693    -0.0097935682     3.6512960986
   21      O      -1.3175773202     1.8268483969     3.4563888748
 ----------------------------------------------------------------

 Frequency:        11.33                  23.18                  42.33
 Force Cnst:      0.0005                 0.0034                 0.0135
 Red. Mass:       6.5282                10.7451                12.8089
 IR Intens:        5.071                  3.375                  2.732
 Frequency:        47.42                  53.48                  62.75
 Force Cnst:      0.0166                 0.0169                 0.0101
 Red. Mass:      12.5054                10.0079                 4.3594
 IR Intens:        2.908                  5.636                 18.331
 Frequency:        87.62                 112.56                 119.05
 Force Cnst:      0.0189                 0.0258                 0.0442
 Red. Mass:       4.1780                 3.4622                 5.2910
 IR Intens:        5.293                  2.154                  8.194
 Frequency:       144.21                 187.13                 220.80
 Force Cnst:      0.0842                 0.0968                 0.2650
 Red. Mass:       6.8744                 4.6904                 9.2264
 IR Intens:        5.959                 16.144                 50.629
 Frequency:       235.01                 254.10                 275.90
 Force Cnst:      0.2117                 0.0446                 0.1856
 Red. Mass:       6.5057                 1.1732                 4.1393
 IR Intens:        6.764                  6.682                  6.245
 Frequency:       340.12                 412.21                 463.88
 Force Cnst:      0.2743                 0.4425                 0.5162
 Red. Mass:       4.0247                 4.4204                 4.0716
 IR Intens:       67.909                 55.627                 64.145
 Frequency:       505.66                 591.56                 602.28
 Force Cnst:      0.7531                 0.4012                 1.3531
 Red. Mass:       4.9991                 1.9461                 6.3311
 IR Intens:       58.566                  9.993                 63.063
 Frequency:       635.25                 707.23                 714.25
 Force Cnst:      1.6307                 0.7997                 0.3899
 Red. Mass:       6.8586                 2.7137                 1.2973
 IR Intens:      279.099                  3.472                157.951
 Frequency:       777.83                 782.70                 831.21
 Force Cnst:      0.3696                 0.6269                 1.3855
 Red. Mass:       1.0368                 1.7368                 3.4036
 IR Intens:      121.466                 11.322                 12.450
 Frequency:       912.07                 924.88                 952.90
 Force Cnst:      1.6654                 2.3271                 0.5736
 Red. Mass:       3.3979                 4.6174                 1.0722
 IR Intens:       53.286                 42.734                 58.622
 Frequency:       972.93                1020.67                1046.68
 Force Cnst:      0.8382                 0.9721                 1.3750
 Red. Mass:       1.5028                 1.5837                 2.1303
 IR Intens:      120.430                 80.462                  6.699
 Frequency:      1096.24                1161.04                1229.40
 Force Cnst:      2.0769                 1.0531                 1.1225
 Red. Mass:       2.9333                 1.3259                 1.2606
 IR Intens:        2.605                 28.071                 64.008
 Frequency:      1252.44                1281.81                1302.54
 Force Cnst:      4.1334                15.4620                 1.2279
 Red. Mass:       4.4725                15.9722                 1.2284
 IR Intens:      460.612                  0.796                 54.488
 Frequency:      1335.97                1354.24                1424.67
 Force Cnst:      1.6691                 1.3202                 8.3345
 Red. Mass:       1.5873                 1.2218                 6.9695
 IR Intens:        5.268                 11.876                520.557
 Frequency:      1454.34                1462.83                1468.58
 Force Cnst:      1.4566                 1.3306                 1.3730
 Red. Mass:       1.1689                 1.0554                 1.0805
 IR Intens:       35.289                  7.457                  8.773
 Frequency:      1473.83                1582.18                1649.79
 Force Cnst:      1.3855                14.8246                 1.7088
 Red. Mass:       1.0826                10.0513                 1.0656
 IR Intens:       13.629               1239.853                 76.379
 Frequency:      3042.32                3054.27                3072.97
 Force Cnst:      5.8725                 5.6752                 5.9018
 Red. Mass:       1.0769                 1.0326                 1.0608
 IR Intens:     2155.175                 58.939                 36.679
 Frequency:      3084.01                3113.53                3136.75
 Force Cnst:      5.9279                 6.2855                 6.4028
 Red. Mass:       1.0578                 1.1005                 1.1045
 IR Intens:       43.863                  7.044                 30.621
 Frequency:      3143.92                3150.00                3379.08
 Force Cnst:      6.4445                 6.4559                 7.1978
 Red. Mass:       1.1066                 1.1043                 1.0699
 IR Intens:       77.175                 33.971               1262.295

 STANDARD THERMODYNAMIC QUANTITIES AT   298.15 K  AND     1.00 ATM

   This Molecule has  0 Imaginary Frequencies
   Zero point vibrational energy:       91.175 kcal/mol

   Atom    1 Element C  Has Mass   12.00000
   Atom    2 Element C  Has Mass   12.00000
   Atom    3 Element O  Has Mass   15.99491
   Atom    4 Element O  Has Mass   15.99491
   Atom    5 Element C  Has Mass   12.00000
   Atom    6 Element H  Has Mass    1.00783
   Atom    7 Element H  Has Mass    1.00783
   Atom    8 Element C  Has Mass   12.00000
   Atom    9 Element H  Has Mass    1.00783
   Atom   10 Element H  Has Mass    1.00783
   Atom   11 Element C  Has Mass   12.00000
   Atom   12 Element H  Has Mass    1.00783
   Atom   13 Element H  Has Mass    1.00783
   Atom   14 Element H  Has Mass    1.00783
   Atom   15 Element O  Has Mass   15.99491
   Atom   16 Element O  Has Mass   15.99491
   Atom   17 Element O  Has Mass   15.99491
   Atom   18 Element H  Has Mass    1.00783
   Atom   19 Element O  Has Mass   15.99491
   Atom   20 Element H  Has Mass    1.00783
   Atom   21 Element O  Has Mass   15.99491
   Molecular Mass:   181.034840 amu
   Principal axes and moments of inertia in amu*Bohr^2:
                             1           2           3
    Eigenvalues --     1302.24958  5685.51579  6388.06916
          X              -0.16864    -0.40620     0.89809
          Y              -0.00002     0.91114     0.41210
          Z               0.98568    -0.06947     0.15366
   Rotational Symmetry Number is   1
   The Molecule is an Asymmetric Top
   Translational Enthalpy:        0.889 kcal/mol
   Rotational Enthalpy:           0.889 kcal/mol
   Vibrational Enthalpy:         99.316 kcal/mol
   gas constant (RT):             0.592 kcal/mol
   Translational Entropy:        41.487  cal/mol.K
   Rotational Entropy:           32.225  cal/mol.K
   Vibrational Entropy:          62.395  cal/mol.K

   Total Enthalpy:              101.686 kcal/mol
   Total Entropy:               136.108  cal/mol.K

 Total job time:  115171.96s(wall), 1529711.06s(cpu)
        *  Thank you very much for using Q-Chem.  Have a nice day.  *
