 Q-Chem 5.0, Q-Chem, Inc., Pleasanton, CA (2017)
 Q-Chem 5.0.2 for Intel X86 EM64T Linux

User input:
--------------------------------------------------------------
$molecule
-2 1
C        2.0180544683    1.3645670771    0.6784811201
O        3.2572624884    1.5365453110    0.7463634285
O        1.1875269369    1.8272142396    1.5238183855
C        1.4537732212    0.5605396690   -0.4945735461
H        0.9278384990    1.2544173883   -1.1599728159
H        2.2994635050    0.1586303843   -1.0572986615
C        0.4829065626   -0.5635334941   -0.0917903548
H        0.7910484535   -1.4795459955   -0.6091382651
H        0.5626866997   -0.7718816999    0.9815545563
C       -1.0152995660   -0.3749828720   -0.4691798859
O       -1.2177887446    0.0677833919   -1.6983767772
H       -0.3153991154    1.8211219896    0.9319915843
O       -1.6617198282    0.4955835611    0.5927553532
O       -1.2203429595    1.8503508738    0.5031693411
C       -1.7527009358   -1.6923148698   -0.1438893821
H       -2.8259442755   -1.5601660144   -0.3120671839
H       -1.3883368256   -2.4703204194   -0.8210839270
H       -1.5915481993   -2.0242807073    0.8876337074
$end

$rem
jobtype               force
method                wb97x-v
basis                 def2-tzvpd
symmetry              off
sym_ignore            true
incdft                false
incfock               0
!scf_algorithm        diis_gdm
scf_convergence       8
thresh                14
!purecart             112
max_scf_cycles        1000
geom_opt_max_cycles   500
geom_opt_dmax         100
geom_opt_tol_gradient 10
solvent_method        pcm
ideriv                1
rpath_tol_displacement 1000
rpath_max_cycles      50
rpath_direction       1
!scf_guess            read
scf_guess             read
geom_opt_hessian      read
$end

$pcm
theory              cosmo
method              iswig
Radii               bondi
vdwScale            1.20
hpoints             110
heavypoints         110
$end

$solvent
dielectric 78.400000
$end

--------------------------------------------------------------

             Standard Nuclear Orientation (Angstroms)
    I     Atom           X                Y                Z
 ----------------------------------------------------------------
    1      C       2.0180544683     1.3645670771     0.6784811201
    2      O       3.2572624884     1.5365453110     0.7463634285
    3      O       1.1875269369     1.8272142396     1.5238183855
    4      C       1.4537732212     0.5605396690    -0.4945735461
    5      H       0.9278384990     1.2544173883    -1.1599728159
    6      H       2.2994635050     0.1586303843    -1.0572986615
    7      C       0.4829065626    -0.5635334941    -0.0917903548
    8      H       0.7910484535    -1.4795459955    -0.6091382651
    9      H       0.5626866997    -0.7718816999     0.9815545563
   10      C      -1.0152995660    -0.3749828720    -0.4691798859
   11      O      -1.2177887446     0.0677833919    -1.6983767772
   12      H      -0.3153991154     1.8211219896     0.9319915843
   13      O      -1.6617198282     0.4955835611     0.5927553532
   14      O      -1.2203429595     1.8503508738     0.5031693411
   15      C      -1.7527009358    -1.6923148698    -0.1438893821
   16      H      -2.8259442755    -1.5601660144    -0.3120671839
   17      H      -1.3883368256    -2.4703204194    -0.8210839270
   18      H      -1.5915481993    -2.0242807073     0.8876337074
 ----------------------------------------------------------------

   14    -571.7236743619      7.30E-09 Convergence criterion met
 Total energy in the final basis set = -571.72367436

                    Orbital Energies (a.u.)
 --------------------------------------------------------------

 Alpha MOs
 -- Occupied --
-19.217 -19.213 -19.150 -19.146 -19.094 -10.346 -10.320 -10.242
-10.237 -10.230  -1.201  -1.152  -1.059  -1.051  -0.956  -0.880
 -0.824  -0.750  -0.652  -0.613  -0.585  -0.557  -0.549  -0.534
 -0.520  -0.511  -0.500  -0.485  -0.466  -0.463  -0.441  -0.429
 -0.418  -0.367  -0.358  -0.354  -0.336  -0.330  -0.302  -0.287

          Ground-State Mulliken Net Atomic Charges

     Atom                 Charge (a.u.)
  ----------------------------------------
      1 C                     0.286905
      2 O                    -0.699967
      3 O                    -0.741865
      4 C                    -0.273453
      5 H                     0.198638
      6 H                     0.187997
      7 C                    -0.659471
      8 H                     0.227783
      9 H                     0.169384
     10 C                     1.100766
     11 O                    -0.924300
     12 H                     0.375681
     13 O                    -0.307469
     14 O                    -0.458300
     15 C                    -1.234438
     16 H                     0.242375
     17 H                     0.281769
     18 H                     0.227966
  ----------------------------------------
  Sum of atomic charges =    -2.000000

                    Cartesian Multipole Moments
 -----------------------------------------------------------------
    Charge (ESU x 10^10)
                -9.6064
    Dipole Moment (Debye)
         X      -1.3814      Y     -11.2527      Z      -0.1311
       Tot      11.3379
    Quadrupole Moments (Debye-Ang)
        XX    -113.7572     XY     -12.5716     YY     -84.3477
        XZ     -17.9550     YZ     -11.0726     ZZ     -88.6539

 Total job time:  350.49s(wall), 4713.42s(cpu)
        *  Thank you very much for using Q-Chem.  Have a nice day.  *
