 Q-Chem 5.0, Q-Chem, Inc., Pleasanton, CA (2017)
 Q-Chem 5.0.2 for Intel X86 EM64T Linux

User input:
--------------------------------------------------------------
$molecule
-2 1
C        1.4826684650    1.9289524410    0.6942480283
O        2.3773365300    2.8434967218    0.5607136031
O        0.5342134559    2.0888229656    1.5953149506
C        1.4720136423    0.7553980095   -0.1049519822
H        0.0683896405    0.6979252392   -1.5015096629
H        2.3747644856    0.5740703988   -0.6882823576
C        0.6626137712   -0.4580370307    0.2854718644
H        1.2036595859   -1.3632787190   -0.0192968122
H        0.5042042560   -0.5365506717    1.3702586865
C       -0.7383090232   -0.5633842677   -0.3812682128
O       -0.6869776789    0.0605882927   -1.6279339567
H       -0.7068423021    1.6023643683    1.0452638595
O       -1.7729753725    0.0171492658    0.4402549495
O       -1.6230449958    1.4312394217    0.5604880762
C       -1.2059679985   -2.0011052597   -0.5298813986
H       -2.2054579643   -2.0369098782   -0.9723785944
H       -0.5098482831   -2.5394153402   -1.1770814305
H       -1.2311897754   -2.4958606255    0.4453150845
$end

$rem
jobtype               force
method                wb97x-v
basis                 def2-tzvpd
symmetry              off
sym_ignore            true
incdft                false
incfock               0
!scf_algorithm        diis_gdm
scf_convergence       8
thresh                14
!purecart             112
max_scf_cycles        1000
geom_opt_max_cycles   500
geom_opt_dmax         100
geom_opt_tol_gradient 10
solvent_method        pcm
ideriv                1
rpath_tol_displacement 1000
rpath_max_cycles      50
rpath_direction       1
!scf_guess            read
scf_guess             read
geom_opt_hessian      read
$end

$pcm
theory              cosmo
method              iswig
Radii               bondi
vdwScale            1.20
hpoints             110
heavypoints         110
$end

$solvent
dielectric 78.400000
$end

--------------------------------------------------------------

             Standard Nuclear Orientation (Angstroms)
    I     Atom           X                Y                Z
 ----------------------------------------------------------------
    1      C       1.4826684650     1.9289524410     0.6942480283
    2      O       2.3773365300     2.8434967218     0.5607136031
    3      O       0.5342134559     2.0888229656     1.5953149506
    4      C       1.4720136423     0.7553980095    -0.1049519822
    5      H       0.0683896405     0.6979252392    -1.5015096629
    6      H       2.3747644856     0.5740703988    -0.6882823576
    7      C       0.6626137712    -0.4580370307     0.2854718644
    8      H       1.2036595859    -1.3632787190    -0.0192968122
    9      H       0.5042042560    -0.5365506717     1.3702586865
   10      C      -0.7383090232    -0.5633842677    -0.3812682128
   11      O      -0.6869776789     0.0605882927    -1.6279339567
   12      H      -0.7068423021     1.6023643683     1.0452638595
   13      O      -1.7729753725     0.0171492658     0.4402549495
   14      O      -1.6230449958     1.4312394217     0.5604880762
   15      C      -1.2059679985    -2.0011052597    -0.5298813986
   16      H      -2.2054579643    -2.0369098782    -0.9723785944
   17      H      -0.5098482831    -2.5394153402    -1.1770814305
   18      H      -1.2311897754    -2.4958606255     0.4453150845
 ----------------------------------------------------------------

   15    -571.6889094437      5.99E-09 Convergence criterion met
 Total energy in the final basis set = -571.68890944

                    Orbital Energies (a.u.)
 --------------------------------------------------------------

 Alpha MOs
 -- Occupied --
-19.237 -19.209 -19.191 -19.123 -19.110 -10.344 -10.310 -10.246
-10.238 -10.182  -1.220  -1.135  -1.108  -1.016  -0.982  -0.869
 -0.834  -0.739  -0.680  -0.634  -0.590  -0.572  -0.558  -0.547
 -0.509  -0.504  -0.488  -0.481  -0.480  -0.467  -0.447  -0.425
 -0.413  -0.393  -0.374  -0.345  -0.331  -0.324  -0.303  -0.237

          Ground-State Mulliken Net Atomic Charges

     Atom                 Charge (a.u.)
  ----------------------------------------
      1 C                     0.228866
      2 O                    -0.803770
      3 O                    -0.793977
      4 C                    -0.981517
      5 H                     0.399863
      6 H                     0.275302
      7 C                    -0.136834
      8 H                     0.274406
      9 H                     0.177815
     10 C                     0.836420
     11 O                    -0.541324
     12 H                     0.375090
     13 O                    -0.254157
     14 O                    -0.516392
     15 C                    -1.363576
     16 H                     0.279314
     17 H                     0.292441
     18 H                     0.252029
  ----------------------------------------
  Sum of atomic charges =    -2.000000

                    Cartesian Multipole Moments
 -----------------------------------------------------------------
    Charge (ESU x 10^10)
                -9.6064
    Dipole Moment (Debye)
         X      -5.4140      Y     -18.7181      Z      -4.5741
       Tot      20.0151
    Quadrupole Moments (Debye-Ang)
        XX    -102.3118     XY     -24.2012     YY    -110.3815
        XZ      -6.3323     YZ     -15.5052     ZZ     -81.7432

 Total job time:  364.85s(wall), 5059.21s(cpu)
        *  Thank you very much for using Q-Chem.  Have a nice day.  *
