 Q-Chem 5.0, Q-Chem, Inc., Pleasanton, CA (2017)
 Q-Chem 5.0.2 for Intel X86 EM64T Linux

User input:
--------------------------------------------------------------
$molecule
-2 1
C       -0.4293337993    0.5481844110    1.0011154516
C       -0.1689358101    1.8610298368    0.2422744403
O       -0.3118421386    1.8404834791   -1.0074259891
O        0.1420396446    2.8680820527    0.9300893199
C        0.1354849877   -0.6751569239    0.3077341479
H       -0.0440372527    0.6232054298    2.0202054027
H       -0.2089128971   -0.7263305227   -0.7284435130
H       -0.1464932031   -1.5991597716    0.8266084052
O        1.5610902913   -0.6341128481    0.1740092772
O        2.1370841906   -0.7503413033    1.4740079336
H       -1.5169627487    0.4193360870    1.0717738824
O       -3.4191426365   -0.9032429538   -1.1119323313
H       -2.6941576462   -0.2714002003   -1.0604926096
H        2.2967978291   -1.7049383132    1.5424420735
$end

$rem
jobtype               freq
method                wb97x-v
basis                 def2-tzvpd
symmetry              off
sym_ignore            true
incdft                false
incfock               0
!scf_algorithm        diis_gdm
scf_convergence       8
thresh                14
!purecart             112
max_scf_cycles        1000
geom_opt_max_cycles   500
geom_opt_dmax         100
geom_opt_tol_gradient 10
solvent_method        pcm
ideriv                1
rpath_tol_displacement 1000
rpath_max_cycles      100
rpath_direction       1
!scf_guess            read
scf_guess             read
$end

$pcm
theory              cosmo
method              iswig
Radii               bondi
vdwScale            1.20
hpoints             110
heavypoints         110
$end

$solvent
dielectric 78.400000
$end

--------------------------------------------------------------

   17    -494.2715164494      7.61E-09 Convergence criterion met
 Total energy in the final basis set = -494.27151645
   16    -494.2715154679      3.03E-09 Convergence criterion met
 Total energy in the final basis set = -494.27151547
   15    -494.2715154820      5.07E-09 Convergence criterion met
 Total energy in the final basis set = -494.27151548
   14    -494.2715155994      8.51E-09 Convergence criterion met
 Total energy in the final basis set = -494.27151560
   14    -494.2715156112      9.15E-09 Convergence criterion met
 Total energy in the final basis set = -494.27151561
   14    -494.2715154142      8.36E-09 Convergence criterion met
 Total energy in the final basis set = -494.27151541
   14    -494.2715154120      9.57E-09 Convergence criterion met
 Total energy in the final basis set = -494.27151541
   14    -494.2715159500      9.21E-09 Convergence criterion met
 Total energy in the final basis set = -494.27151644
   17    -494.2715164450      1.36E-09 Convergence criterion met
 Total energy in the final basis set = -494.27151644
   17    -494.2715164048      1.78E-09 Convergence criterion met
 Total energy in the final basis set = -494.27151640
   17    -494.2715163974      1.51E-09 Convergence criterion met
 Total energy in the final basis set = -494.27151640
   17    -494.2715155714      1.29E-09 Convergence criterion met
 Total energy in the final basis set = -494.27151557
   15    -494.2715155706      7.61E-09 Convergence criterion met
 Total energy in the final basis set = -494.27151557
   17    -494.2715163433      1.23E-09 Convergence criterion met
 Total energy in the final basis set = -494.27151634
   17    -494.2715163518      1.69E-09 Convergence criterion met
 Total energy in the final basis set = -494.27151635

                    Orbital Energies (a.u.)
 --------------------------------------------------------------

 Alpha MOs
 -- Occupied --
-19.270 -19.266 -19.141 -19.141 -19.092 -10.343 -10.308 -10.250
 -1.258  -1.145  -1.051  -1.035  -0.965  -0.874  -0.750  -0.644
 -0.605  -0.592  -0.584  -0.532  -0.530  -0.522  -0.488  -0.462
 -0.446  -0.445  -0.405  -0.383  -0.349  -0.337  -0.332  -0.312
 -0.312

          Ground-State Mulliken Net Atomic Charges

     Atom                 Charge (a.u.)
  ----------------------------------------
      1 C                    -0.025054
      2 C                     0.156012
      3 O                    -0.706227
      4 O                    -0.715508
      5 C                    -0.154624
      6 H                     0.167020
      7 H                     0.161863
      8 H                     0.180140
      9 O                    -0.248029
     10 O                    -0.379097
     11 H                     0.213495
     12 O                    -1.124319
     13 H                     0.114270
     14 H                     0.360059
  ----------------------------------------
  Sum of atomic charges =    -2.000000

                    Cartesian Multipole Moments
 -----------------------------------------------------------------
    Charge (ESU x 10^10)
                -9.6064
    Dipole Moment (Debye)
         X      15.5130      Y      -9.4090      Z       6.7175
       Tot      19.3470
    Quadrupole Moments (Debye-Ang)
        XX    -118.2132     XY     -21.3916     YY     -88.3859
        XZ     -21.2291     YZ     -10.8036     ZZ     -66.7532

             Standard Nuclear Orientation (Angstroms)
    I     Atom           X                Y                Z
 ----------------------------------------------------------------
    1      C      -0.4293337993     0.5481844110     1.0011154516
    2      C      -0.1689358101     1.8610298368     0.2422744403
    3      O      -0.3118421386     1.8404834791    -1.0074259891
    4      O       0.1420396446     2.8680820527     0.9300893199
    5      C       0.1354849877    -0.6751569239     0.3077341479
    6      H      -0.0440372527     0.6232054298     2.0202054027
    7      H      -0.2089128971    -0.7263305227    -0.7284435130
    8      H      -0.1464932031    -1.5991597716     0.8266084052
    9      O       1.5610902913    -0.6341128481     0.1740092772
   10      O       2.1370841906    -0.7503413033     1.4740079336
   11      H      -1.5169627487     0.4193360870     1.0717738824
   12      O      -3.4191426365    -0.9032429538    -1.1119323313
   13      H      -2.6941576462    -0.2714002003    -1.0604926096
   14      H       2.2967978291    -1.7049383132     1.5424420735
 ----------------------------------------------------------------

 Frequency:        32.54                  42.63                  52.02
 Force Cnst:      0.0058                 0.0108                 0.0090
 Red. Mass:       9.2408                10.1123                 5.6468
 IR Intens:       31.852                 11.412                 28.370
 Frequency:        65.81                  77.75                 161.69
 Force Cnst:      0.0192                 0.0266                 0.0697
 Red. Mass:       7.5134                 7.4741                 4.5241
 IR Intens:       22.947                 19.171                  9.794
 Frequency:       225.90                 236.11                 252.30
 Force Cnst:      0.0337                 0.0889                 0.0445
 Red. Mass:       1.1213                 2.7079                 1.1853
 IR Intens:      120.798                  4.792                196.839
 Frequency:       261.19                 382.57                 460.74
 Force Cnst:      0.0425                 0.2274                 0.3127
 Red. Mass:       1.0572                 2.6375                 2.5005
 IR Intens:      129.048                  8.428                 10.420
 Frequency:       555.62                 609.69                 687.44
 Force Cnst:      0.9594                 0.9368                 0.7007
 Red. Mass:       5.2745                 4.2774                 2.5168
 IR Intens:       30.088                 23.050                 11.626
 Frequency:       866.84                 882.23                 966.52
 Force Cnst:      1.8051                 2.0094                 1.8325
 Red. Mass:       4.0773                 4.3817                 3.3295
 IR Intens:       32.213                 15.868                 28.571
 Frequency:      1009.13                1059.18                1119.80
 Force Cnst:      1.3044                 2.4406                 1.8572
 Red. Mass:       2.1740                 3.6924                 2.5138
 IR Intens:       14.139                 26.451                 26.650
 Frequency:      1223.10                1283.40                1346.21
 Force Cnst:      1.1706                 1.2344                 1.6780
 Red. Mass:       1.3281                 1.2720                 1.5715
 IR Intens:       24.025                  5.194                 55.426
 Frequency:      1392.57                1402.11                1443.28
 Force Cnst:      1.3816                 1.6381                 2.7236
 Red. Mass:       1.2092                 1.4142                 2.2192
 IR Intens:       16.169                168.175                142.934
 Frequency:      1450.12                1463.38                1593.45
 Force Cnst:      1.4718                 1.6484                14.8814
 Red. Mass:       1.1879                 1.3065                 9.9475
 IR Intens:       54.060                102.155               1270.976
 Frequency:      3053.81                3068.61                3127.14
 Force Cnst:      5.8497                 5.9217                 6.3252
 Red. Mass:       1.0646                 1.0674                 1.0978
 IR Intens:       46.842                 33.886                  5.298
 Frequency:      3140.66                3760.27                3843.63
 Force Cnst:      6.3869                 8.9008                 9.2866
 Red. Mass:       1.0990                 1.0684                 1.0669
 IR Intens:       36.094                 89.447                  3.686

 STANDARD THERMODYNAMIC QUANTITIES AT   298.15 K  AND     1.00 ATM

   This Molecule has  0 Imaginary Frequencies
   Zero point vibrational energy:       60.899 kcal/mol

   Atom    1 Element C  Has Mass   12.00000
   Atom    2 Element C  Has Mass   12.00000
   Atom    3 Element O  Has Mass   15.99491
   Atom    4 Element O  Has Mass   15.99491
   Atom    5 Element C  Has Mass   12.00000
   Atom    6 Element H  Has Mass    1.00783
   Atom    7 Element H  Has Mass    1.00783
   Atom    8 Element H  Has Mass    1.00783
   Atom    9 Element O  Has Mass   15.99491
   Atom   10 Element O  Has Mass   15.99491
   Atom   11 Element H  Has Mass    1.00783
   Atom   12 Element O  Has Mass   15.99491
   Atom   13 Element H  Has Mass    1.00783
   Atom   14 Element H  Has Mass    1.00783
   Molecular Mass:   122.021530 amu
   Principal axes and moments of inertia in amu*Bohr^2:
                             1           2           3
    Eigenvalues --     1039.99305  1499.99271  2215.13200
          X               0.91066    -0.00195    -0.41316
          Y              -0.00905     0.99965    -0.02468
          Z               0.41307     0.02621     0.91032
   Rotational Symmetry Number is   1
   The Molecule is an Asymmetric Top
   Translational Enthalpy:        0.889 kcal/mol
   Rotational Enthalpy:           0.889 kcal/mol
   Vibrational Enthalpy:         65.982 kcal/mol
   gas constant (RT):             0.592 kcal/mol
   Translational Entropy:        40.311  cal/mol.K
   Rotational Entropy:           29.625  cal/mol.K
   Vibrational Entropy:          37.298  cal/mol.K

   Total Enthalpy:               68.352 kcal/mol
   Total Entropy:               107.234  cal/mol.K

 Total job time:  13681.52s(wall), 188728.21s(cpu)
        *  Thank you very much for using Q-Chem.  Have a nice day.  *
