 Q-Chem 5.0, Q-Chem, Inc., Pleasanton, CA (2017)
 Q-Chem 5.0.2 for Intel X86 EM64T Linux

User input:
--------------------------------------------------------------
$molecule
-2 1
C        0.1243580981    1.2010974774   -0.8751840098
C        0.6132673556    1.8190673329   -2.1963078265
O        0.4689219578    3.0683029043   -2.3072137210
O        1.0992698461    1.0650836883   -3.0776786601
C        0.5280967089   -0.2506605707   -0.6394455884
H       -0.9678153153    1.3029553886   -0.8790232502
H        0.4822389243    1.8412225130   -0.0624987006
C        0.0677732909   -0.8899822108    0.6784901784
H        1.6196007277   -0.3429285475   -0.6698669137
H        0.1344102204   -0.8777519097   -1.4470886359
C       -1.4582274620   -0.8669398968    0.8464480580
H       -1.8721436358    0.1430497158    0.7759970664
H       -1.7160954482   -1.2857616435    1.8235395552
H       -1.9184861286   -1.4891471704    0.0714484637
O        0.5915545287   -2.1071994393    0.8921198681
O        0.6255752380    0.0520703023    1.7320496031
O        0.7637993448   -0.7496641290    2.9112807064
H        0.8373710689   -1.6318783197    2.4186819713
$end

$rem
jobtype               force
method                wb97x-v
basis                 def2-tzvpd
symmetry              off
sym_ignore            true
incdft                false
incfock               0
!scf_algorithm        diis_gdm
scf_convergence       8
thresh                14
!purecart             112
max_scf_cycles        1000
geom_opt_max_cycles   500
geom_opt_dmax         100
geom_opt_tol_gradient 10
solvent_method        pcm
ideriv                1
rpath_tol_displacement 1000
rpath_max_cycles      50
rpath_direction       1
!scf_guess            read
scf_guess             read
geom_opt_hessian      read
$end

$pcm
theory              cosmo
method              iswig
Radii               bondi
vdwScale            1.20
hpoints             110
heavypoints         110
$end

$solvent
dielectric 78.400000
$end

--------------------------------------------------------------

             Standard Nuclear Orientation (Angstroms)
    I     Atom           X                Y                Z
 ----------------------------------------------------------------
    1      C       0.1243580981     1.2010974774    -0.8751840098
    2      C       0.6132673556     1.8190673329    -2.1963078265
    3      O       0.4689219578     3.0683029043    -2.3072137210
    4      O       1.0992698461     1.0650836883    -3.0776786601
    5      C       0.5280967089    -0.2506605707    -0.6394455884
    6      H      -0.9678153153     1.3029553886    -0.8790232502
    7      H       0.4822389243     1.8412225130    -0.0624987006
    8      C       0.0677732909    -0.8899822108     0.6784901784
    9      H       1.6196007277    -0.3429285475    -0.6698669137
   10      H       0.1344102204    -0.8777519097    -1.4470886359
   11      C      -1.4582274620    -0.8669398968     0.8464480580
   12      H      -1.8721436358     0.1430497158     0.7759970664
   13      H      -1.7160954482    -1.2857616435     1.8235395552
   14      H      -1.9184861286    -1.4891471704     0.0714484637
   15      O       0.5915545287    -2.1071994393     0.8921198681
   16      O       0.6255752380     0.0520703023     1.7320496031
   17      O       0.7637993448    -0.7496641290     2.9112807064
   18      H       0.8373710689    -1.6318783197     2.4186819713
 ----------------------------------------------------------------

   14    -571.7272134559      5.35E-09 Convergence criterion met
 Total energy in the final basis set = -571.72721346

                    Orbital Energies (a.u.)
 --------------------------------------------------------------

 Alpha MOs
 -- Occupied --
-19.224 -19.221 -19.139 -19.136 -19.113 -10.338 -10.328 -10.244
-10.238 -10.232  -1.217  -1.141  -1.058  -1.046  -0.967  -0.882
 -0.823  -0.756  -0.656  -0.602  -0.595  -0.560  -0.551  -0.533
 -0.518  -0.510  -0.503  -0.494  -0.463  -0.456  -0.448  -0.433
 -0.416  -0.401  -0.345  -0.343  -0.332  -0.330  -0.324  -0.297

          Ground-State Mulliken Net Atomic Charges

     Atom                 Charge (a.u.)
  ----------------------------------------
      1 C                    -0.192513
      2 C                    -0.022707
      3 O                    -0.715426
      4 O                    -0.692616
      5 C                    -0.269986
      6 H                     0.197584
      7 H                     0.199660
      8 C                     1.058591
      9 H                     0.152581
     10 H                     0.213509
     11 C                    -1.285144
     12 H                     0.266329
     13 H                     0.235055
     14 H                     0.246864
     15 O                    -0.983777
     16 O                    -0.272612
     17 O                    -0.489763
     18 H                     0.354369
  ----------------------------------------
  Sum of atomic charges =    -2.000000

                    Cartesian Multipole Moments
 -----------------------------------------------------------------
    Charge (ESU x 10^10)
                -9.6064
    Dipole Moment (Debye)
         X      -8.1184      Y      -4.5059      Z       6.3234
       Tot      11.2337
    Quadrupole Moments (Debye-Ang)
        XX     -72.2733     XY      -2.6181     YY    -112.9141
        XZ       8.4066     YZ      34.2016     ZZ    -126.6002

 Total job time:  325.29s(wall), 4445.32s(cpu)
        *  Thank you very much for using Q-Chem.  Have a nice day.  *
