 Q-Chem 5.0, Q-Chem, Inc., Pleasanton, CA (2017)
 Q-Chem 5.0.2 for Intel X86 EM64T Linux

User input:
--------------------------------------------------------------
$molecule
-2 1
C        0.1398935583    1.2444845904   -0.8401584904
C        0.6226281264    1.8469839185   -2.1704412022
O        0.4814391433    3.0948546702   -2.2919683730
O        1.1014116497    1.0808351014   -3.0447675892
C        0.5231909622   -0.2123729468   -0.6098749934
H       -0.9499108966    1.3652672716   -0.8268314968
H        0.5234913960    1.8763690688   -0.0328558318
C        0.0757010570   -0.7936240585    0.7275214878
H        1.6115168686   -0.3234902494   -0.6606135046
H        0.0997116037   -0.8392796166   -1.4015041259
C       -1.4419510205   -0.7915608792    0.9108751160
H       -1.8381347552    0.2271331292    0.8864352155
H       -1.6899478708   -1.2421073317    1.8744219700
H       -1.9167720572   -1.3737172471    0.1151002579
O        0.5621821405   -2.1220469197    0.8266510232
O        0.7098351708   -0.0430324023    1.7554392301
O        0.6893013321   -0.8539031468    2.9648670078
H        0.7124463474   -2.1369067417    1.8111949419
$end

$rem
jobtype               force
method                wb97x-v
basis                 def2-tzvpd
symmetry              off
sym_ignore            true
incdft                false
incfock               0
!scf_algorithm        diis_gdm
scf_convergence       8
thresh                14
!purecart             112
max_scf_cycles        1000
geom_opt_max_cycles   500
geom_opt_dmax         100
geom_opt_tol_gradient 10
solvent_method        pcm
ideriv                1
rpath_tol_displacement 1000
rpath_max_cycles      50
rpath_direction       1
!scf_guess            read
scf_guess             read
geom_opt_hessian      read
$end

$pcm
theory              cosmo
method              iswig
Radii               bondi
vdwScale            1.20
hpoints             110
heavypoints         110
$end

$solvent
dielectric 78.400000
$end

--------------------------------------------------------------

             Standard Nuclear Orientation (Angstroms)
    I     Atom           X                Y                Z
 ----------------------------------------------------------------
    1      C       0.1398935583     1.2444845904    -0.8401584904
    2      C       0.6226281264     1.8469839185    -2.1704412022
    3      O       0.4814391433     3.0948546702    -2.2919683730
    4      O       1.1014116497     1.0808351014    -3.0447675892
    5      C       0.5231909622    -0.2123729468    -0.6098749934
    6      H      -0.9499108966     1.3652672716    -0.8268314968
    7      H       0.5234913960     1.8763690688    -0.0328558318
    8      C       0.0757010570    -0.7936240585     0.7275214878
    9      H       1.6115168686    -0.3234902494    -0.6606135046
   10      H       0.0997116037    -0.8392796166    -1.4015041259
   11      C      -1.4419510205    -0.7915608792     0.9108751160
   12      H      -1.8381347552     0.2271331292     0.8864352155
   13      H      -1.6899478708    -1.2421073317     1.8744219700
   14      H      -1.9167720572    -1.3737172471     0.1151002579
   15      O       0.5621821405    -2.1220469197     0.8266510232
   16      O       0.7098351708    -0.0430324023     1.7554392301
   17      O       0.6893013321    -0.8539031468     2.9648670078
   18      H       0.7124463474    -2.1369067417     1.8111949419
 ----------------------------------------------------------------

   14    -571.7277628477      9.41E-09 Convergence criterion met
 Total energy in the final basis set = -571.72776285

                    Orbital Energies (a.u.)
 --------------------------------------------------------------

 Alpha MOs
 -- Occupied --
-19.211 -19.182 -19.147 -19.140 -19.137 -10.342 -10.340 -10.247
-10.246 -10.237  -1.190  -1.142  -1.099  -1.047  -0.938  -0.875
 -0.832  -0.765  -0.651  -0.614  -0.597  -0.568  -0.561  -0.538
 -0.517  -0.511  -0.506  -0.489  -0.466  -0.449  -0.445  -0.431
 -0.422  -0.404  -0.369  -0.346  -0.334  -0.328  -0.315  -0.280

          Ground-State Mulliken Net Atomic Charges

     Atom                 Charge (a.u.)
  ----------------------------------------
      1 C                    -0.239267
      2 C                    -0.010228
      3 O                    -0.712851
      4 O                    -0.691203
      5 C                    -0.258698
      6 H                     0.198694
      7 H                     0.206374
      8 C                     0.934573
      9 H                     0.205257
     10 H                     0.213211
     11 C                    -1.303533
     12 H                     0.282036
     13 H                     0.225374
     14 H                     0.235672
     15 O                    -0.545343
     16 O                    -0.199414
     17 O                    -0.916055
     18 H                     0.375402
  ----------------------------------------
  Sum of atomic charges =    -2.000000

                    Cartesian Multipole Moments
 -----------------------------------------------------------------
    Charge (ESU x 10^10)
                -9.6064
    Dipole Moment (Debye)
         X      -8.6005      Y      -6.1795      Z       2.2949
       Tot      10.8361
    Quadrupole Moments (Debye-Ang)
        XX     -72.2151     XY      -3.6448     YY    -106.3291
        XZ       4.8619     YZ      35.8443     ZZ    -141.0408

 Total job time:  324.26s(wall), 4430.79s(cpu)
        *  Thank you very much for using Q-Chem.  Have a nice day.  *
