 Q-Chem 5.0, Q-Chem, Inc., Pleasanton, CA (2017)
 Q-Chem 5.0.2 for Intel X86 EM64T Linux

User input:
--------------------------------------------------------------
$molecule
-2 1
C        2.4211549114    1.4341092553    0.0051352111
O        2.5131566439    2.4136108492   -0.7821072344
O        2.7312600425    1.4319566050    1.2230197384
C        1.8780328917    0.1536853904   -0.6024555338
H        0.6860363210    1.4100018712    2.3765077259
H        1.6826720582    0.1882315759   -1.6724847874
C        1.6260521770   -0.9483235653    0.0947755216
H        1.2246142554   -1.8410864528   -0.3773641464
H        1.8124134625   -0.9800328062    1.1648693710
C       -1.5143996904    0.5526796894   -1.2453757706
O       -1.2240875017   -0.1006439974   -2.3827031611
H       -0.8277496221    0.5316780122   -3.0048684465
O       -1.2935468416    1.7357325161   -1.1092297740
O       -0.1559536726    1.4324018311    2.8466934983
C       -2.1360859573   -0.3457544274   -0.2196545290
H       -3.0854695734   -0.7266905856   -0.6061136770
H       -1.4805494605   -1.2008712441   -0.0379686718
H       -2.3020240994    0.2050299413    0.7043606923
$end

$rem
jobtype               force
method                wb97x-v
basis                 def2-tzvpd
symmetry              off
sym_ignore            true
incdft                false
incfock               0
!scf_algorithm        diis_gdm
scf_convergence       8
thresh                14
!purecart             112
max_scf_cycles        1000
geom_opt_max_cycles   500
geom_opt_dmax         100
geom_opt_tol_gradient 10
solvent_method        pcm
ideriv                1
rpath_tol_displacement 1000
rpath_max_cycles      50
rpath_direction       1
!scf_guess            read
scf_guess             read
geom_opt_hessian      read
$end

$pcm
theory              cosmo
method              iswig
Radii               bondi
vdwScale            1.20
hpoints             110
heavypoints         110
$end

$solvent
dielectric 78.400000
$end

--------------------------------------------------------------

             Standard Nuclear Orientation (Angstroms)
    I     Atom           X                Y                Z
 ----------------------------------------------------------------
    1      C       2.4211549114     1.4341092553     0.0051352111
    2      O       2.5131566439     2.4136108492    -0.7821072344
    3      O       2.7312600425     1.4319566050     1.2230197384
    4      C       1.8780328917     0.1536853904    -0.6024555338
    5      H       0.6860363210     1.4100018712     2.3765077259
    6      H       1.6826720582     0.1882315759    -1.6724847874
    7      C       1.6260521770    -0.9483235653     0.0947755216
    8      H       1.2246142554    -1.8410864528    -0.3773641464
    9      H       1.8124134625    -0.9800328062     1.1648693710
   10      C      -1.5143996904     0.5526796894    -1.2453757706
   11      O      -1.2240875017    -0.1006439974    -2.3827031611
   12      H      -0.8277496221     0.5316780122    -3.0048684465
   13      O      -1.2935468416     1.7357325161    -1.1092297740
   14      O      -0.1559536726     1.4324018311     2.8466934983
   15      C      -2.1360859573    -0.3457544274    -0.2196545290
   16      H      -3.0854695734    -0.7266905856    -0.6061136770
   17      H      -1.4805494605    -1.2008712441    -0.0379686718
   18      H      -2.3020240994     0.2050299413     0.7043606923
 ----------------------------------------------------------------

   17    -571.7903571921      2.72E-09 Convergence criterion met
 Total energy in the final basis set = -571.79035719

                    Orbital Energies (a.u.)
 --------------------------------------------------------------

 Alpha MOs
 -- Occupied --
-19.259 -19.205 -19.144 -19.142 -19.087 -10.409 -10.346 -10.270
-10.260 -10.259  -1.243  -1.148  -1.147  -1.053  -0.959  -0.892
 -0.885  -0.730  -0.719  -0.613  -0.613  -0.596  -0.588  -0.563
 -0.541  -0.513  -0.511  -0.504  -0.500  -0.495  -0.462  -0.441
 -0.435  -0.392  -0.365  -0.349  -0.344  -0.335  -0.308  -0.308

          Ground-State Mulliken Net Atomic Charges

     Atom                 Charge (a.u.)
  ----------------------------------------
      1 C                     0.326572
      2 O                    -0.709925
      3 O                    -0.698670
      4 C                     0.182847
      5 H                     0.100043
      6 H                     0.269839
      7 C                    -0.825545
      8 H                     0.261911
      9 H                     0.230805
     10 C                     0.491914
     11 O                    -0.410624
     12 H                     0.381026
     13 O                    -0.525476
     14 O                    -1.120496
     15 C                    -0.584225
     16 H                     0.272488
     17 H                     0.173853
     18 H                     0.183661
  ----------------------------------------
  Sum of atomic charges =    -2.000000

                    Cartesian Multipole Moments
 -----------------------------------------------------------------
    Charge (ESU x 10^10)
                -9.6064
    Dipole Moment (Debye)
         X     -11.4166      Y     -20.0748      Z     -16.4730
       Tot      28.3672
    Quadrupole Moments (Debye-Ang)
        XX     -98.3177     XY     -21.3659     YY    -106.1915
        XZ      -0.9997     YZ     -21.1017     ZZ    -110.3356

 Total job time:  366.62s(wall), 4833.16s(cpu)
        *  Thank you very much for using Q-Chem.  Have a nice day.  *
