 Q-Chem 5.0, Q-Chem, Inc., Pleasanton, CA (2017)
 Q-Chem 5.0.2 for Intel X86 EM64T Linux

User input:
--------------------------------------------------------------
$molecule
0 1
C        0.3952724250    0.8060922863   -0.1761544526
C        0.1065510249   -0.4601351223   -0.9179997753
H        1.3757414801    0.7452764742    0.2957143743
H        0.3635210863    1.6517569870   -0.8679478803
H       -0.3795051891    0.9486375792    0.5852157668
C       -0.5340703715   -1.6581559922    2.3223545215
C       -1.7505768765   -1.7075323758    1.7905449291
H        0.0789119515   -2.5499395350    2.4234989902
H       -0.1169515206   -0.7161560159    2.6687840251
H       -1.2037056614   -1.2709957388   -2.0238053718
H       -2.1708881379   -2.6482304711    1.4408903120
O       -1.0593335225   -0.4159942983   -1.5833894102
O        0.8117880726   -1.4502710977   -0.9403596182
O        3.5500592651    2.0548916098   -1.6352214445
H        3.1229409570    2.3964164662   -0.8438434797
C       -2.6367265888   -0.4943330183    1.6221749908
O       -3.7673879674   -0.6899896553    1.0957380188
O       -2.2068752678    0.6311023769    2.0006393877
K       -4.4053756954    1.9216853659    1.1381557951
K        3.5410502680   -0.8617562615   -1.6994986366
O        2.0243918079    0.8062774705   -3.3632423672
H        1.1332690673    1.1783812761   -3.4581595854
H        2.5189131009    1.4017388422   -2.7252525917
O        5.6884114123    0.9334258668   -1.1866616714
H        6.0273002005    1.1304326062   -0.3083561110
H        4.7769418620    1.5031389190   -1.3359398876
O        5.2174785132   -2.2799525332   -3.3256470870
H        6.0129109038   -1.7055143668   -3.2862633384
H        5.5439745568   -3.1851800815   -3.3007881587
O        7.1762542250   -0.3969389362   -2.9504275519
H        7.4101362518    0.1797447550   -3.6857323682
H        6.6843668952    0.1714173008   -2.3027706901
O        3.0090826431   -1.7772624919    0.8565612824
H        3.2254170188   -2.4907097254    1.4667482200
H        2.0852099209   -1.9191293053    0.6029016765
O       -0.7154256556    1.7478323695   -3.6087693125
H       -0.9116499616    2.6538339593   -3.3427552517
H       -1.1487859809    1.1912369025   -2.9464254363
$end

$rem
jobtype               force
method                wb97x-v
basis                 gen
symmetry              off
sym_ignore            true
incdft                false
incfock               0
!scf_algorithm        diis_gdm
scf_convergence       8
thresh                14
!purecart             112
max_scf_cycles        1000
geom_opt_max_cycles   500
geom_opt_dmax         100
geom_opt_tol_gradient 10
solvent_method        pcm
ideriv                1
rpath_tol_displacement 1000
rpath_max_cycles      50
rpath_direction       1
!scf_guess            read
scf_guess             read
geom_opt_hessian      read
$end

$pcm
theory              cosmo
method              iswig
Radii               bondi
vdwScale            1.20
hpoints             110
heavypoints         110
$end

$solvent
dielectric 78.400000
$end

$basis
****
H 0
S 3 1.00
34.061341      .60251978E-02
5.1235746      .45021094E-01
1.1646626      .20189726
S 1 1.00
.32723041      1.0000000
S 1 1.00
.10307241      1.0000000
P 1 1.00
.80   1.00
****
C 0
S 6 1.00
13575.349682      .22245814352E-03
2035.2333680      .17232738252E-02
463.22562359      .89255715314E-02
131.20019598      .35727984502E-01
42.853015891      .11076259931
15.584185766      .24295627626
S 2 1.00
6.2067138508      .41440263448
2.5764896527      .23744968655
S 1 1.00
.57696339419      1.0000000000
S 1 1.00
.22972831358      1.0000000000
S 1 1.00
.95164440028E-01  1.0000000000
P 4 1.00
34.697232244      .53333657805E-02
7.9582622826      .35864109092E-01
2.3780826883      .14215873329
.81433208183      .34270471845
P 1 1.00
.28887547253      .46445822433
P 1 1.00
.10056823671      .24955789874
D 1 1.00
.80   1.00
****
O 0
S 6 1.00
27032.382631      .21726302465E-03
4052.3871392      .16838662199E-02
922.32722710      .87395616265E-02
261.24070989      .35239968808E-01
85.354641351      .11153519115
31.035035245      .25588953961
S 2 1.00
12.260860728      .39768730901
4.9987076005      .24627849430
S 1 1.00
1.1703108158      1.0000000000
S 1 1.00
.46474740994      1.0000000000
S 1 1.00
.18504536357      1.0000000000
P 4 1.00
63.274954801      .60685103418E-02
14.627049379      .41912575824E-01
4.4501223456      .16153841088
1.5275799647      .35706951311
P 1 1.00
.52935117943      .44794207502
P 1 1.00
.17478421270      .24446069663
D 1 1.00
1.20   1.00
****
K     0
S   8   1.00
153976.1832500              0.23662636107E-03
23082.4976720              0.18342929137E-02
5253.2344745              0.95310527769E-02
1486.9550133              0.38638406980E-01
484.06333726             0.12480768502
173.56653980             0.29278861009
67.116381464            0.40633425860
26.339502054            0.2007721586
S   4   1.00
172.87693567            -0.24200960936E-01
53.058649063           -0.11553095040
7.9212753964           0.57455545175
3.2108880472           0.57023185107
S   2   1.00
4.5662070895          -0.22615763466
0.70209907282          0.75528392045
S   1   1.00
0.28258942635          1.0000000
S   1   1.00
0.035805824617         1.0000000
S   1   1.00
0.015819213245         1.0000000
P   6   1.00
728.18449873             0.26150689792E-02
172.13265061             0.20673630835E-01
54.829847075            0.93205603870E-01
20.166266494            0.25436518210
7.8610728806           0.39131132810
3.1105213132           0.22481345943
P   3   1.00
11.757337492           -0.25777289217E-01
1.5139617411           0.57359428604
0.58328591795          1.0798320002
P   1   1.00
0.21570478076          1.0000000
P   1   1.00
0.0417370              1.0000000
****
$end

--------------------------------------------------------------

             Standard Nuclear Orientation (Angstroms)
    I     Atom           X                Y                Z
 ----------------------------------------------------------------
    1      C       0.3952724250     0.8060922863    -0.1761544526
    2      C       0.1065510249    -0.4601351223    -0.9179997753
    3      H       1.3757414801     0.7452764742     0.2957143743
    4      H       0.3635210863     1.6517569870    -0.8679478803
    5      H      -0.3795051891     0.9486375792     0.5852157668
    6      C      -0.5340703715    -1.6581559922     2.3223545215
    7      C      -1.7505768765    -1.7075323758     1.7905449291
    8      H       0.0789119515    -2.5499395350     2.4234989902
    9      H      -0.1169515206    -0.7161560159     2.6687840251
   10      H      -1.2037056614    -1.2709957388    -2.0238053718
   11      H      -2.1708881379    -2.6482304711     1.4408903120
   12      O      -1.0593335225    -0.4159942983    -1.5833894102
   13      O       0.8117880726    -1.4502710977    -0.9403596182
   14      O       3.5500592651     2.0548916098    -1.6352214445
   15      H       3.1229409570     2.3964164662    -0.8438434797
   16      C      -2.6367265888    -0.4943330183     1.6221749908
   17      O      -3.7673879674    -0.6899896553     1.0957380188
   18      O      -2.2068752678     0.6311023769     2.0006393877
   19      K      -4.4053756954     1.9216853659     1.1381557951
   20      K       3.5410502680    -0.8617562615    -1.6994986366
   21      O       2.0243918079     0.8062774705    -3.3632423672
   22      H       1.1332690673     1.1783812761    -3.4581595854
   23      H       2.5189131009     1.4017388422    -2.7252525917
   24      O       5.6884114123     0.9334258668    -1.1866616714
   25      H       6.0273002005     1.1304326062    -0.3083561110
   26      H       4.7769418620     1.5031389190    -1.3359398876
   27      O       5.2174785132    -2.2799525332    -3.3256470870
   28      H       6.0129109038    -1.7055143668    -3.2862633384
   29      H       5.5439745568    -3.1851800815    -3.3007881587
   30      O       7.1762542250    -0.3969389362    -2.9504275519
   31      H       7.4101362518     0.1797447550    -3.6857323682
   32      H       6.6843668952     0.1714173008    -2.3027706901
   33      O       3.0090826431    -1.7772624919     0.8565612824
   34      H       3.2254170188    -2.4907097254     1.4667482200
   35      H       2.0852099209    -1.9191293053     0.6029016765
   36      O      -0.7154256556     1.7478323695    -3.6087693125
   37      H      -0.9116499616     2.6538339593    -3.3427552517
   38      H      -1.1487859809     1.1912369025    -2.9464254363
 ----------------------------------------------------------------

   14   -2230.0547524803      4.99E-09 Convergence criterion met
 Total energy in the final basis set = -2230.05475248

                    Orbital Energies (a.u.)
 --------------------------------------------------------------

 Alpha MOs
 -- Occupied --
*******-129.701 -19.274 -19.220 -19.216 -19.211 -19.198 -19.197
-19.172 -19.168 -19.155 -19.155 -19.126 -13.302 -13.239 -10.638
-10.638 -10.637 -10.575 -10.574 -10.574 -10.425 -10.361 -10.274
-10.269 -10.267  -1.510  -1.448  -1.260  -1.167  -1.166  -1.144
 -1.139  -1.133  -1.120  -1.096  -1.091  -1.069  -1.021  -0.904
 -0.895  -0.864  -0.862  -0.859  -0.804  -0.802  -0.801  -0.744
 -0.731  -0.654  -0.649  -0.641  -0.631  -0.624  -0.622  -0.614
 -0.613  -0.605  -0.601  -0.575  -0.554  -0.529  -0.524  -0.521
 -0.517  -0.514  -0.511  -0.505  -0.501  -0.497  -0.487  -0.473
 -0.472  -0.453  -0.449  -0.431  -0.429  -0.422  -0.420  -0.408
 -0.405  -0.397  -0.373  -0.363  -0.362  -0.354  -0.352  -0.351

          Ground-State Mulliken Net Atomic Charges

     Atom                 Charge (a.u.)
  ----------------------------------------
      1 C                    -0.385056
      2 C                     0.272915
      3 H                     0.143760
      4 H                     0.146932
      5 H                     0.165704
      6 C                    -0.296653
      7 C                    -0.175174
      8 H                     0.143673
      9 H                     0.151223
     10 H                     0.344755
     11 H                     0.154063
     12 O                    -0.304202
     13 O                    -0.421369
     14 O                    -0.908512
     15 H                     0.272103
     16 C                     0.232347
     17 O                    -0.567914
     18 O                    -0.564537
     19 K                     0.945063
     20 K                     0.848608
     21 O                    -0.648808
     22 H                     0.279161
     23 H                     0.284229
     24 O                    -0.720493
     25 H                     0.305478
     26 H                     0.287570
     27 O                    -0.634993
     28 H                     0.298545
     29 H                     0.311740
     30 O                    -0.630968
     31 H                     0.314458
     32 H                     0.305367
     33 O                    -0.604395
     34 H                     0.316290
     35 H                     0.302693
     36 O                    -0.592154
     37 H                     0.320043
     38 H                     0.308509
  ----------------------------------------
  Sum of atomic charges =    -0.000000

                    Cartesian Multipole Moments
 -----------------------------------------------------------------
    Charge (ESU x 10^10)
                 0.0000
    Dipole Moment (Debye)
         X     -12.6579      Y       3.0019      Z       5.9047
       Tot      14.2863
    Quadrupole Moments (Debye-Ang)
        XX    -106.6097     XY     -60.7782     YY     -94.3423
        XZ      23.9719     YZ      13.3128     ZZ    -153.2928

 Total job time:  352.73s(wall), 4115.82s(cpu)
        *  Thank you very much for using Q-Chem.  Have a nice day.  *
