 Q-Chem 5.0, Q-Chem, Inc., Pleasanton, CA (2017)
 Q-Chem 5.0.2 for Intel X86 EM64T Linux

User input:
--------------------------------------------------------------
$molecule
-3 1
C        0.0419821171    0.8003944009   -1.8234001406
C        0.3426798993    0.9748480439   -3.3211962284
O        0.0818877966    2.1103022940   -3.8096214806
O        0.8059829744    0.0010116675   -3.9685743309
C        0.5482132115   -0.4902201761   -1.1885252473
H       -1.0473033432    0.8794160415   -1.7208851867
H        0.4540161237    1.6720837245   -1.3044971239
C        0.2902628250   -0.6758488962    0.3291518812
H        1.6310711312   -0.5772805451   -1.3326156524
H        0.0901414571   -1.3521610599   -1.6881704982
C       -1.2160013599   -0.6114876526    0.6474536995
H       -1.6607038716    0.3481123830    0.3635379005
H       -1.3562403740   -0.7540880064    1.7227448493
H       -1.7454893413   -1.4120830982    0.1182315786
O        0.8415423414   -1.8326495073    0.7844409701
O        0.9353452673    0.4754292411    0.9302377390
O        1.1964523849   -0.0951238611    2.6224434994
H        1.1653693858   -1.0068507851    2.2095782615
O       -0.7883892504    0.4547970681    4.1640133589
H       -0.0305211272    0.2150959747    3.5198819388
O       -1.0940106710    1.7664146920    3.8659609795
$end

$rem
jobtype               force
method                wb97x-v
basis                 def2-tzvpd
symmetry              off
sym_ignore            true
incdft                false
incfock               0
!scf_algorithm        diis_gdm
scf_convergence       8
thresh                14
unrestricted          true
!purecart             112
max_scf_cycles        1000
geom_opt_max_cycles   500
geom_opt_dmax         100
geom_opt_tol_gradient 10
solvent_method        pcm
!ideriv               1
rpath_tol_displacement 1000
rpath_max_cycles      100
rpath_direction       1
cdft                  true
scf_guess             read
$end

$cdft
2
1 1 18
0
1 1 18 s
$end

$pcm
theory              cosmo
method              iswig
Radii               bondi
vdwScale            1.20
hpoints             110
heavypoints         110
$end

$solvent
dielectric 78.400000
$end

--------------------------------------------------------------

   20    -722.7342195051      8.09E-09 Convergence criterion met
 Total energy in the final basis set = -722.73421951
 Total job time:  806.40s(wall), 10298.69s(cpu)
        *  Thank you very much for using Q-Chem.  Have a nice day.  *
 Q-Chem 5.0, Q-Chem, Inc., Pleasanton, CA (2017)
 Q-Chem 5.0.2 for Intel X86 EM64T Linux

User input:
--------------------------------------------------------------

$molecule
read
$end

$rem
jobtype               force
method                wb97x-v
basis                 def2-tzvpd
symmetry              off
sym_ignore            true
incdft                false
incfock               0
!scf_algorithm        diis_gdm
scf_guess             read
scf_convergence       8
thresh                14
unrestricted          true
!purecart             112
max_scf_cycles        1000
geom_opt_max_cycles   500
geom_opt_dmax         100
geom_opt_tol_gradient 10
solvent_method        pcm
ideriv                1
rpath_tol_displacement 1000
rpath_max_cycles      100
rpath_direction       1
$end

$pcm
theory              cosmo
method              iswig
Radii               bondi
vdwScale            1.20
hpoints             110
heavypoints         110
$end

$solvent
dielectric 78.400000
$end

--------------------------------------------------------------

             Standard Nuclear Orientation (Angstroms)
    I     Atom           X                Y                Z
 ----------------------------------------------------------------
    1      C       0.0419821171     0.8003944009    -1.8234001406
    2      C       0.3426798993     0.9748480439    -3.3211962284
    3      O       0.0818877966     2.1103022940    -3.8096214806
    4      O       0.8059829744     0.0010116675    -3.9685743309
    5      C       0.5482132115    -0.4902201761    -1.1885252473
    6      H      -1.0473033432     0.8794160415    -1.7208851867
    7      H       0.4540161237     1.6720837245    -1.3044971239
    8      C       0.2902628250    -0.6758488962     0.3291518812
    9      H       1.6310711312    -0.5772805451    -1.3326156524
   10      H       0.0901414571    -1.3521610599    -1.6881704982
   11      C      -1.2160013599    -0.6114876526     0.6474536995
   12      H      -1.6607038716     0.3481123830     0.3635379005
   13      H      -1.3562403740    -0.7540880064     1.7227448493
   14      H      -1.7454893413    -1.4120830982     0.1182315786
   15      O       0.8415423414    -1.8326495073     0.7844409701
   16      O       0.9353452673     0.4754292411     0.9302377390
   17      O       1.1964523849    -0.0951238611     2.6224434994
   18      H       1.1653693858    -1.0068507851     2.2095782615
   19      O      -0.7883892504     0.4547970681     4.1640133589
   20      H      -0.0305211272     0.2150959747     3.5198819388
   21      O      -1.0940106710     1.7664146920     3.8659609795
 ----------------------------------------------------------------

   19    -722.7557146035      6.90E-09 Convergence criterion met
 Total energy in the final basis set = -722.75571460

                    Orbital Energies (a.u.)
 --------------------------------------------------------------

 Alpha MOs
 -- Occupied --
-19.261 -19.247 -19.171 -19.139 -19.136 -19.114 -19.112 -10.339
-10.337 -10.247 -10.245 -10.232  -1.163  -1.141  -1.141  -1.063
 -1.046  -1.020  -0.888  -0.842  -0.823  -0.759  -0.640  -0.603
 -0.595  -0.569  -0.556  -0.543  -0.530  -0.512  -0.509  -0.504
 -0.485  -0.469  -0.459  -0.450  -0.442  -0.435  -0.424  -0.419
 -0.416  -0.376  -0.345  -0.342  -0.330  -0.325  -0.301  -0.270
 -0.241

 Beta MOs
 -- Occupied --
-19.261 -19.247 -19.171 -19.139 -19.136 -19.114 -19.112 -10.339
-10.337 -10.247 -10.245 -10.232  -1.163  -1.141  -1.141  -1.063
 -1.046  -1.020  -0.888  -0.842  -0.823  -0.759  -0.640  -0.603
 -0.595  -0.569  -0.556  -0.543  -0.530  -0.512  -0.509  -0.504
 -0.485  -0.469  -0.459  -0.450  -0.442  -0.435  -0.424  -0.419
 -0.416  -0.376  -0.345  -0.342  -0.330  -0.325  -0.301  -0.270
 -0.241

          Ground-State Mulliken Net Atomic Charges

     Atom                 Charge (a.u.)    Spin (a.u.)
  --------------------------------------------------------
      1 C                    -0.214313      -0.000000
      2 C                    -0.021710       0.000000
      3 O                    -0.715107       0.000000
      4 O                    -0.693312       0.000000
      5 C                    -0.358850       0.000000
      6 H                     0.216418       0.000000
      7 H                     0.226648       0.000000
      8 C                     1.284710       0.000000
      9 H                     0.177558      -0.000000
     10 H                     0.216178      -0.000000
     11 C                    -1.241266      -0.000000
     12 H                     0.256090      -0.000000
     13 H                     0.173940       0.000000
     14 H                     0.254839       0.000000
     15 O                    -0.995817      -0.000000
     16 O                    -0.401473      -0.000000
     17 O                    -0.511831       0.000000
     18 H                     0.369825       0.000000
     19 O                    -0.407495       0.000000
     20 H                     0.312489      -0.000000
     21 O                    -0.927519      -0.000000
  --------------------------------------------------------
  Sum of atomic charges =    -3.000000

                    Cartesian Multipole Moments
 -----------------------------------------------------------------
    Charge (ESU x 10^10)
               -14.4096
    Dipole Moment (Debye)
         X      -0.8915      Y      -9.5245      Z      -7.4381
       Tot      12.1175
    Quadrupole Moments (Debye-Ang)
        XX     -95.0703     XY      14.0986     YY    -123.3451
        XZ      30.8268     YZ      -8.9190     ZZ    -265.2304

 Total job time:  697.45s(wall), 9786.19s(cpu)
        *  Thank you very much for using Q-Chem.  Have a nice day.  *
