 Q-Chem 5.0, Q-Chem, Inc., Pleasanton, CA (2017)
 Q-Chem 5.0.2 for Intel X86 EM64T Linux

User input:
--------------------------------------------------------------
$molecule
-2 1
C        1.2836670405    1.4242314854   -2.2990456193
O        0.8658385245    2.0574475026   -3.3083747615
O        2.4839566008    1.1037980152   -2.0949722887
C        0.2332275176    1.0635692173   -1.2385114939
H       -2.3137283706    0.1531037750    1.3526927440
H       -0.7072657195    0.8460624129   -1.7526878586
C        0.6095893544   -0.0722631477   -0.2998234484
H        0.7495686913   -1.0013535988   -0.8684841538
H        1.5718628313    0.1461339290    0.1760534161
C       -0.4060567244   -0.3283104495    0.8235947008
O       -1.5877193859   -0.9316100365    0.0690561985
H        0.0548856417    1.9731753468   -0.6520262280
O       -0.8359466653    0.7551060175    1.4801807836
O       -2.7384643076   -0.6308455132    0.8671183063
C        0.0949384267   -1.4393279024    1.7572018855
H       -0.7000622838   -1.7101896922    2.4586741678
H        0.3973420304   -2.3323174170    1.1998405687
H        0.9545651778   -1.0762719561    2.3302132488
$end

$rem
jobtype               freq
method                wb97x-v
basis                 def2-tzvpd
symmetry              off
sym_ignore            true
unrestricted          true
incdft                false
incfock               0
!scf_algorithm        diis_gdm
scf_convergence       8
thresh                14
!purecart             112
max_scf_cycles        1000
geom_opt_max_cycles   500
geom_opt_dmax         100
geom_opt_tol_gradient 10
solvent_method        pcm
ideriv                1
rpath_tol_displacement 1000
rpath_max_cycles      100
rpath_direction       1
scf_guess             read
$end

$pcm
theory              cosmo
method              iswig
Radii               bondi
vdwScale            1.20
hpoints             110
heavypoints         110
$end

$solvent
dielectric 78.400000
$end

--------------------------------------------------------------

   17    -571.7275124994      3.97E-09 Convergence criterion met
 Total energy in the final basis set = -571.72751250
   13    -571.7275112008      8.84E-09 Convergence criterion met
 Total energy in the final basis set = -571.72751120
   13    -571.7275112490      8.71E-09 Convergence criterion met
 Total energy in the final basis set = -571.72751125
   13    -571.7275118209      8.80E-09 Convergence criterion met
 Total energy in the final basis set = -571.72751182
   13    -571.7275118239      9.17E-09 Convergence criterion met
 Total energy in the final basis set = -571.72751182
   13    -571.7275113738      9.30E-09 Convergence criterion met
 Total energy in the final basis set = -571.72751137
   13    -571.7275115500      8.79E-09 Convergence criterion met
 Total energy in the final basis set = -571.72751155
   13    -571.7275122430      9.30E-09 Convergence criterion met
 Total energy in the final basis set = -571.72751226
   15    -571.7275122908      4.84E-09 Convergence criterion met
 Total energy in the final basis set = -571.72751229
   16    -571.7275120823      3.53E-09 Convergence criterion met
 Total energy in the final basis set = -571.72751208
   14    -571.7275121108      6.13E-09 Convergence criterion met
 Total energy in the final basis set = -571.72751211
   16    -571.7275123541      3.41E-09 Convergence criterion met
 Total energy in the final basis set = -571.72751235
   16    -571.7275123600      4.26E-09 Convergence criterion met
 Total energy in the final basis set = -571.72751236
   16    -571.7275122779      5.54E-09 Convergence criterion met
 Total energy in the final basis set = -571.72751228
   15    -571.7275122747      5.07E-09 Convergence criterion met
 Total energy in the final basis set = -571.72751227

                    Orbital Energies (a.u.)
 --------------------------------------------------------------

 Alpha MOs
 -- Occupied --
-19.222 -19.220 -19.137 -19.135 -19.114 -10.337 -10.328 -10.239
-10.237 -10.232  -1.215  -1.139  -1.060  -1.044  -0.965  -0.878
 -0.829  -0.750  -0.653  -0.601  -0.596  -0.556  -0.549  -0.532
 -0.522  -0.510  -0.493  -0.488  -0.480  -0.454  -0.437  -0.427
 -0.423  -0.405  -0.345  -0.339  -0.331  -0.328  -0.325  -0.296

 Beta MOs
 -- Occupied --
-19.222 -19.220 -19.137 -19.135 -19.114 -10.337 -10.328 -10.239
-10.237 -10.232  -1.215  -1.139  -1.060  -1.044  -0.965  -0.878
 -0.829  -0.750  -0.653  -0.601  -0.596  -0.556  -0.549  -0.532
 -0.522  -0.510  -0.493  -0.488  -0.480  -0.454  -0.437  -0.427
 -0.423  -0.405  -0.345  -0.339  -0.331  -0.328  -0.325  -0.296

          Ground-State Mulliken Net Atomic Charges

     Atom                 Charge (a.u.)    Spin (a.u.)
  --------------------------------------------------------
      1 C                    -0.000662       0.000000
      2 O                    -0.715998      -0.000000
      3 O                    -0.697613       0.000000
      4 C                    -0.230287      -0.000000
      5 H                     0.371599      -0.000000
      6 H                     0.200004      -0.000000
      7 C                    -0.501168      -0.000000
      8 H                     0.255794       0.000000
      9 H                     0.178266       0.000000
     10 C                     1.272966       0.000000
     11 O                    -0.328193       0.000000
     12 H                     0.208911       0.000000
     13 O                    -0.983744       0.000000
     14 O                    -0.443690      -0.000000
     15 C                    -1.310476       0.000000
     16 H                     0.236892      -0.000000
     17 H                     0.229464      -0.000000
     18 H                     0.257935      -0.000000
  --------------------------------------------------------
  Sum of atomic charges =    -2.000000

                    Cartesian Multipole Moments
 -----------------------------------------------------------------
    Charge (ESU x 10^10)
                -9.6064
    Dipole Moment (Debye)
         X      -1.3297      Y      -8.4401      Z       9.7789
       Tot      12.9857
    Quadrupole Moments (Debye-Ang)
        XX    -103.4370     XY     -16.4504     YY     -85.8497
        XZ      27.9615     YZ      23.9992     ZZ    -118.2519

             Standard Nuclear Orientation (Angstroms)
    I     Atom           X                Y                Z
 ----------------------------------------------------------------
    1      C       1.2836670405     1.4242314854    -2.2990456193
    2      O       0.8658385245     2.0574475026    -3.3083747615
    3      O       2.4839566008     1.1037980152    -2.0949722887
    4      C       0.2332275176     1.0635692173    -1.2385114939
    5      H      -2.3137283706     0.1531037750     1.3526927440
    6      H      -0.7072657195     0.8460624129    -1.7526878586
    7      C       0.6095893544    -0.0722631477    -0.2998234484
    8      H       0.7495686913    -1.0013535988    -0.8684841538
    9      H       1.5718628313     0.1461339290     0.1760534161
   10      C      -0.4060567244    -0.3283104495     0.8235947008
   11      O      -1.5877193859    -0.9316100365     0.0690561985
   12      H       0.0548856417     1.9731753468    -0.6520262280
   13      O      -0.8359466653     0.7551060175     1.4801807836
   14      O      -2.7384643076    -0.6308455132     0.8671183063
   15      C       0.0949384267    -1.4393279024     1.7572018855
   16      H      -0.7000622838    -1.7101896922     2.4586741678
   17      H       0.3973420304    -2.3323174170     1.1998405687
   18      H       0.9545651778    -1.0762719561     2.3302132488
 ----------------------------------------------------------------

 Frequency:        36.90                  57.44                  89.51
 Force Cnst:      0.0081                 0.0080                 0.0240
 Red. Mass:      10.0467                 4.0969                 5.0909
 IR Intens:        1.387                 17.850                  4.303
 Frequency:       126.19                 158.25                 234.87
 Force Cnst:      0.0263                 0.0748                 0.2901
 Red. Mass:       2.8037                 5.0669                 8.9263
 IR Intens:        6.116                 20.870                  7.491
 Frequency:       243.49                 297.66                 318.10
 Force Cnst:      0.0364                 0.1985                 0.2221
 Red. Mass:       1.0418                 3.8029                 3.7257
 IR Intens:        0.219                 38.262                  5.328
 Frequency:       388.94                 430.62                 486.70
 Force Cnst:      0.3574                 0.3607                 0.5720
 Red. Mass:       4.0097                 3.3013                 4.0985
 IR Intens:       39.092                 11.853                 20.670
 Frequency:       557.86                 609.75                 637.10
 Force Cnst:      0.8058                 0.4927                 1.0405
 Red. Mass:       4.3948                 2.2491                 4.3509
 IR Intens:       35.769                 38.600                 70.044
 Frequency:       670.02                 716.48                 796.82
 Force Cnst:      1.4587                 1.2790                 0.6326
 Red. Mass:       5.5148                 4.2286                 1.6910
 IR Intens:      122.478                 20.178                 28.045
 Frequency:       810.07                 883.99                 930.42
 Force Cnst:      0.4358                 1.2534                 1.8232
 Red. Mass:       1.1272                 2.7224                 3.5746
 IR Intens:      139.016                 40.112                 10.933
 Frequency:       969.20                1004.07                1020.31
 Force Cnst:      1.2172                 1.0107                 5.1259
 Red. Mass:       2.1993                 1.7016                 8.3572
 IR Intens:       49.998                  5.782                 12.380
 Frequency:      1084.95                1103.05                1161.57
 Force Cnst:      1.5491                 1.7708                 1.6982
 Red. Mass:       2.2336                 2.4702                 2.1362
 IR Intens:       55.643                 27.911                 99.000
 Frequency:      1191.89                1266.63                1301.73
 Force Cnst:      1.1904                 1.5342                 2.1445
 Red. Mass:       1.4222                 1.6231                 2.1480
 IR Intens:       39.711                  2.529                212.709
 Frequency:      1312.41                1377.83                1389.61
 Force Cnst:      1.6009                 1.5296                 2.2766
 Red. Mass:       1.5776                 1.3675                 2.0010
 IR Intens:      158.751                 21.312                124.293
 Frequency:      1439.94                1456.16                1466.26
 Force Cnst:      6.6854                 1.4776                 1.3440
 Red. Mass:       5.4725                 1.1828                 1.0611
 IR Intens:      336.424                 14.706                 21.709
 Frequency:      1468.02                1471.74                1511.93
 Force Cnst:      1.3640                 1.3921                 1.6602
 Red. Mass:       1.0743                 1.0908                 1.2327
 IR Intens:        6.403                 15.960                293.882
 Frequency:      1574.40                2940.96                3038.42
 Force Cnst:     14.3437                 5.4279                 5.6879
 Red. Mass:       9.8216                 1.0651                 1.0457
 IR Intens:     1250.357                710.936                 10.933
 Frequency:      3043.79                3062.36                3090.97
 Force Cnst:      5.7586                 5.8730                 6.1634
 Red. Mass:       1.0550                 1.0629                 1.0949
 IR Intens:       78.860                 42.801                 12.200
 Frequency:      3112.34                3115.92                3124.06
 Force Cnst:      6.2817                 6.3026                 6.3416
 Red. Mass:       1.1007                 1.1018                 1.1028
 IR Intens:       14.182                134.402                 61.100

 STANDARD THERMODYNAMIC QUANTITIES AT   298.15 K  AND     1.00 ATM

   This Molecule has  0 Imaginary Frequencies
   Zero point vibrational energy:       83.747 kcal/mol

   Atom    1 Element C  Has Mass   12.00000
   Atom    2 Element O  Has Mass   15.99491
   Atom    3 Element O  Has Mass   15.99491
   Atom    4 Element C  Has Mass   12.00000
   Atom    5 Element H  Has Mass    1.00783
   Atom    6 Element H  Has Mass    1.00783
   Atom    7 Element C  Has Mass   12.00000
   Atom    8 Element H  Has Mass    1.00783
   Atom    9 Element H  Has Mass    1.00783
   Atom   10 Element C  Has Mass   12.00000
   Atom   11 Element O  Has Mass   15.99491
   Atom   12 Element H  Has Mass    1.00783
   Atom   13 Element O  Has Mass   15.99491
   Atom   14 Element O  Has Mass   15.99491
   Atom   15 Element C  Has Mass   12.00000
   Atom   16 Element H  Has Mass    1.00783
   Atom   17 Element H  Has Mass    1.00783
   Atom   18 Element H  Has Mass    1.00783
   Molecular Mass:   148.037190 amu
   Principal axes and moments of inertia in amu*Bohr^2:
                             1           2           3
    Eigenvalues --      674.03866  2790.74378  3103.45911
          X              -0.55292     0.83262     0.03207
          Y              -0.42775    -0.31667     0.84661
          Z               0.71506     0.45439     0.53125
   Rotational Symmetry Number is   1
   The Molecule is an Asymmetric Top
   Translational Enthalpy:        0.889 kcal/mol
   Rotational Enthalpy:           0.889 kcal/mol
   Vibrational Enthalpy:         88.560 kcal/mol
   gas constant (RT):             0.592 kcal/mol
   Translational Entropy:        40.887  cal/mol.K
   Rotational Entropy:           30.146  cal/mol.K
   Vibrational Entropy:          31.507  cal/mol.K

   Total Enthalpy:               90.930 kcal/mol
   Total Entropy:               102.541  cal/mol.K

 Total job time:  38121.64s(wall), 541060.28s(cpu)
        *  Thank you very much for using Q-Chem.  Have a nice day.  *
