 Q-Chem 5.0, Q-Chem, Inc., Pleasanton, CA (2017)
 Q-Chem 5.0.2 for Intel X86 EM64T Linux

User input:
--------------------------------------------------------------
$molecule
-2 1
C        2.3932668969    0.9971837596    0.3831541870
O        3.5155559377    1.5440147662    0.0732978590
O        1.8978703887    1.1926822989    1.5886591809
C        1.6589916096    0.2023324519   -0.5372697559
H        0.4638773681    1.3554731177    1.4670194042
H        2.1984117688   -0.0919488270   -1.4375462186
C        0.5562097015   -0.7224238511   -0.0796186771
H        0.5524131108   -1.6175079292   -0.7150629993
H        0.6886472885   -1.0719888081    0.9539532328
C       -0.8812722478   -0.1372707075   -0.1743936623
O       -0.9201679485    0.7778558544   -1.2262921373
H        0.0370595853    1.0475820387   -1.2882799868
O       -1.2926841718    0.4861585899    1.0602405315
O       -0.5313466207    1.6612677784    1.3351615433
C       -1.9362960184   -1.2130534929   -0.3680619409
H       -2.9358015311   -0.7704802141   -0.4030672214
H       -1.7455216776   -1.7371744932   -1.3072902035
H       -1.8967078077   -1.9369250353    0.4510646525
$end

$rem
jobtype               force
method                wb97x-v
basis                 def2-tzvpd
symmetry              off
sym_ignore            true
incdft                false
incfock               0
!scf_algorithm        diis_gdm
scf_convergence       8
thresh                14
!purecart             112
max_scf_cycles        1000
geom_opt_max_cycles   500
geom_opt_dmax         100
geom_opt_tol_gradient 10
solvent_method        pcm
ideriv                1
rpath_tol_displacement 1000
rpath_max_cycles      50
rpath_direction       1
!scf_guess            read
scf_guess             read
geom_opt_hessian      read
$end

$pcm
theory              cosmo
method              iswig
Radii               bondi
vdwScale            1.20
hpoints             110
heavypoints         110
$end

$solvent
dielectric 78.400000
$end

--------------------------------------------------------------

             Standard Nuclear Orientation (Angstroms)
    I     Atom           X                Y                Z
 ----------------------------------------------------------------
    1      C       2.3932668969     0.9971837596     0.3831541870
    2      O       3.5155559377     1.5440147662     0.0732978590
    3      O       1.8978703887     1.1926822989     1.5886591809
    4      C       1.6589916096     0.2023324519    -0.5372697559
    5      H       0.4638773681     1.3554731177     1.4670194042
    6      H       2.1984117688    -0.0919488270    -1.4375462186
    7      C       0.5562097015    -0.7224238511    -0.0796186771
    8      H       0.5524131108    -1.6175079292    -0.7150629993
    9      H       0.6886472885    -1.0719888081     0.9539532328
   10      C      -0.8812722478    -0.1372707075    -0.1743936623
   11      O      -0.9201679485     0.7778558544    -1.2262921373
   12      H       0.0370595853     1.0475820387    -1.2882799868
   13      O      -1.2926841718     0.4861585899     1.0602405315
   14      O      -0.5313466207     1.6612677784     1.3351615433
   15      C      -1.9362960184    -1.2130534929    -0.3680619409
   16      H      -2.9358015311    -0.7704802141    -0.4030672214
   17      H      -1.7455216776    -1.7371744932    -1.3072902035
   18      H      -1.8967078077    -1.9369250353     0.4510646525
 ----------------------------------------------------------------

   15    -571.6889823278      6.52E-09 Convergence criterion met
 Total energy in the final basis set = -571.68898233

                    Orbital Energies (a.u.)
 --------------------------------------------------------------

 Alpha MOs
 -- Occupied --
-19.237 -19.210 -19.191 -19.123 -19.110 -10.344 -10.310 -10.246
-10.238 -10.182  -1.220  -1.135  -1.108  -1.016  -0.983  -0.869
 -0.834  -0.739  -0.680  -0.634  -0.590  -0.572  -0.558  -0.547
 -0.509  -0.504  -0.488  -0.481  -0.480  -0.467  -0.448  -0.425
 -0.413  -0.393  -0.374  -0.345  -0.331  -0.324  -0.303  -0.237

          Ground-State Mulliken Net Atomic Charges

     Atom                 Charge (a.u.)
  ----------------------------------------
      1 C                     0.224196
      2 O                    -0.801962
      3 O                    -0.795382
      4 C                    -0.974666
      5 H                     0.376391
      6 H                     0.269211
      7 C                    -0.139039
      8 H                     0.275061
      9 H                     0.179008
     10 C                     0.844086
     11 O                    -0.541183
     12 H                     0.398321
     13 O                    -0.254997
     14 O                    -0.514223
     15 C                    -1.369931
     16 H                     0.279834
     17 H                     0.293306
     18 H                     0.251968
  ----------------------------------------
  Sum of atomic charges =    -2.000000

                    Cartesian Multipole Moments
 -----------------------------------------------------------------
    Charge (ESU x 10^10)
                -9.6064
    Dipole Moment (Debye)
         X     -14.8997      Y     -13.4176      Z      -5.0833
       Tot      20.6851
    Quadrupole Moments (Debye-Ang)
        XX    -129.5502     XY     -20.7647     YY     -85.0026
        XZ      -6.3631     YZ      -7.6994     ZZ     -82.6161

 Total job time:  365.34s(wall), 5041.02s(cpu)
        *  Thank you very much for using Q-Chem.  Have a nice day.  *
