 Q-Chem 5.0, Q-Chem, Inc., Pleasanton, CA (2017)
 Q-Chem 5.0.2 for Intel X86 EM64T Linux

User input:
--------------------------------------------------------------
$molecule
-2 1
C        2.4573677186    1.1046812088    0.2166409658
O        3.3157164051    1.7995872484   -0.4244731683
O        2.3524880017    1.1524361411    1.4983752295
C        1.5794988456    0.2121296583   -0.5149313954
H        0.7040850598    1.4325882472    1.5107213886
H        1.7709927048    0.1382529227   -1.5853530245
C        0.5829158938   -0.6406941461    0.0502520769
H        0.5226165326   -1.6162606539   -0.4417612945
H        0.6356009274   -0.7447145632    1.1359931836
C       -1.0425672267   -0.1202292647   -0.2069079439
O       -1.0917647054    0.3575946902   -1.5634352866
H       -0.2749827213    0.8615086387   -1.6946561305
O       -1.4701473378    0.7573953437    0.6509046299
O       -0.1798180210    1.8667891858    1.5101424193
C       -1.8595757810   -1.4108700447   -0.1131877216
H       -2.9207041430   -1.1985129694   -0.2737971343
H       -1.5203482395   -2.1249016170   -0.8685328977
H       -1.7327667639   -1.8498804258    0.8792544236
$end

$rem
jobtype               freq
method                wb97x-v
basis                 def2-tzvpd
symmetry              off
sym_ignore            true
incdft                false
incfock               0
!scf_algorithm        diis_gdm
scf_convergence       8
thresh                14
!purecart             112
max_scf_cycles        1000
geom_opt_max_cycles   500
geom_opt_dmax         100
geom_opt_tol_gradient 10
solvent_method        pcm
ideriv                1
rpath_tol_displacement 1000
rpath_max_cycles      100
rpath_direction       1
!scf_guess            read
scf_guess             read
$end

$pcm
theory              cosmo
method              iswig
Radii               bondi
vdwScale            1.20
hpoints             110
heavypoints         110
$end

$solvent
dielectric 78.400000
$end

--------------------------------------------------------------

   20    -571.6314628546      6.39E-09 Convergence criterion met
 Total energy in the final basis set = -571.63146285
   18    -571.6314620340      4.39E-09 Convergence criterion met
 Total energy in the final basis set = -571.63146203
   18    -571.6314620231      4.09E-09 Convergence criterion met
 Total energy in the final basis set = -571.63146202
   18    -571.6314621446      4.24E-09 Convergence criterion met
 Total energy in the final basis set = -571.63146214
   18    -571.6314621621      4.09E-09 Convergence criterion met
 Total energy in the final basis set = -571.63146216
   18    -571.6314617154      4.22E-09 Convergence criterion met
 Total energy in the final basis set = -571.63146172
   18    -571.6314616344      4.14E-09 Convergence criterion met
 Total energy in the final basis set = -571.63146163
   18    -571.6314623793      4.14E-09 Convergence criterion met
 Total energy in the final basis set = -571.63146246
   18    -571.6314625809      5.18E-09 Convergence criterion met
 Total energy in the final basis set = -571.63146258
   19    -571.6314627545      6.29E-09 Convergence criterion met
 Total energy in the final basis set = -571.63146275
   19    -571.6314627730      6.24E-09 Convergence criterion met
 Total energy in the final basis set = -571.63146277
   19    -571.6314626685      8.21E-09 Convergence criterion met
 Total energy in the final basis set = -571.63146267
   18    -571.6314627039      9.57E-09 Convergence criterion met
 Total energy in the final basis set = -571.63146270
   19    -571.6314622755      7.61E-09 Convergence criterion met
 Total energy in the final basis set = -571.63146228
   17    -571.6314623850      9.29E-09 Convergence criterion met
 Total energy in the final basis set = -571.63146238

                    Orbital Energies (a.u.)
 --------------------------------------------------------------

 Alpha MOs
 -- Occupied --
-19.204 -19.194 -19.158 -19.135 -19.123 -10.348 -10.326 -10.257
-10.251 -10.224  -1.169  -1.127  -1.092  -1.034  -1.003  -0.882
 -0.843  -0.736  -0.674  -0.602  -0.593  -0.575  -0.550  -0.537
 -0.513  -0.508  -0.492  -0.487  -0.476  -0.459  -0.448  -0.437
 -0.396  -0.381  -0.354  -0.342  -0.335  -0.333  -0.318  -0.238

          Ground-State Mulliken Net Atomic Charges

     Atom                 Charge (a.u.)
  ----------------------------------------
      1 C                     0.096783
      2 O                    -0.778078
      3 O                    -0.776032
      4 C                    -0.713337
      5 H                     0.238372
      6 H                     0.445247
      7 C                    -0.351465
      8 H                     0.337985
      9 H                     0.278586
     10 C                     0.843271
     11 O                    -0.546363
     12 H                     0.399960
     13 O                    -0.447374
     14 O                    -0.680804
     15 C                    -1.143815
     16 H                     0.271968
     17 H                     0.267921
     18 H                     0.257175
  ----------------------------------------
  Sum of atomic charges =    -2.000000

                    Cartesian Multipole Moments
 -----------------------------------------------------------------
    Charge (ESU x 10^10)
                -9.6064
    Dipole Moment (Debye)
         X     -12.0843      Y     -15.8350      Z      -5.7457
       Tot      20.7314
    Quadrupole Moments (Debye-Ang)
        XX    -124.3578     XY     -21.3236     YY     -92.3187
        XZ      -5.1038     YZ     -11.9283     ZZ     -84.6115

             Standard Nuclear Orientation (Angstroms)
    I     Atom           X                Y                Z
 ----------------------------------------------------------------
    1      C       2.4573677186     1.1046812088     0.2166409658
    2      O       3.3157164051     1.7995872484    -0.4244731683
    3      O       2.3524880017     1.1524361411     1.4983752295
    4      C       1.5794988456     0.2121296583    -0.5149313954
    5      H       0.7040850598     1.4325882472     1.5107213886
    6      H       1.7709927048     0.1382529227    -1.5853530245
    7      C       0.5829158938    -0.6406941461     0.0502520769
    8      H       0.5226165326    -1.6162606539    -0.4417612945
    9      H       0.6356009274    -0.7447145632     1.1359931836
   10      C      -1.0425672267    -0.1202292647    -0.2069079439
   11      O      -1.0917647054     0.3575946902    -1.5634352866
   12      H      -0.2749827213     0.8615086387    -1.6946561305
   13      O      -1.4701473378     0.7573953437     0.6509046299
   14      O      -0.1798180210     1.8667891858     1.5101424193
   15      C      -1.8595757810    -1.4108700447    -0.1131877216
   16      H      -2.9207041430    -1.1985129694    -0.2737971343
   17      H      -1.5203482395    -2.1249016170    -0.8685328977
   18      H      -1.7327667639    -1.8498804258     0.8792544236
 ----------------------------------------------------------------

 Frequency:      -736.40                  52.99                  90.18
 Force Cnst:      2.6112                 0.0100                 0.0373
 Red. Mass:       8.1726                 6.0576                 7.7775
 IR Intens:     4069.519                  3.446                  2.107
 Frequency:       102.36                 186.05                 229.84
 Force Cnst:      0.0492                 0.0744                 0.0354
 Red. Mass:       7.9646                 3.6468                 1.1373
 IR Intens:        6.882                 34.730                  3.611
 Frequency:       248.93                 259.18                 302.61
 Force Cnst:      0.2058                 0.1978                 0.1690
 Red. Mass:       5.6378                 4.9983                 3.1324
 IR Intens:       11.948                 13.357                 17.420
 Frequency:       318.60                 333.29                 340.16
 Force Cnst:      0.0910                 0.3041                 0.1667
 Red. Mass:       1.5224                 4.6462                 2.4448
 IR Intens:      192.257                  8.600                 14.127
 Frequency:       442.24                 507.99                 541.42
 Force Cnst:      0.3192                 0.7241                 0.9964
 Red. Mass:       2.7699                 4.7629                 5.7693
 IR Intens:        5.844                  6.983                 50.904
 Frequency:       582.93                 648.93                 668.18
 Force Cnst:      0.6406                 1.4725                 1.3117
 Red. Mass:       3.1997                 5.9348                 4.9864
 IR Intens:       19.461                 99.942                 27.000
 Frequency:       696.99                 743.78                 822.09
 Force Cnst:      0.4320                 0.3742                 1.4257
 Red. Mass:       1.5093                 1.1482                 3.5804
 IR Intens:       21.944                203.590                129.897
 Frequency:       835.45                 867.79                 938.37
 Force Cnst:      1.6821                 1.1039                 0.8551
 Red. Mass:       4.0903                 2.4880                 1.6482
 IR Intens:       60.891                 36.031                266.951
 Frequency:       984.19                1015.55                1041.46
 Force Cnst:      0.7973                 1.4731                 0.8938
 Red. Mass:       1.3971                 2.4242                 1.3986
 IR Intens:       17.842                 22.556                 33.120
 Frequency:      1083.26                1133.56                1180.31
 Force Cnst:      1.3825                 1.5376                 1.0780
 Red. Mass:       1.9996                 2.0310                 1.3134
 IR Intens:      324.170                281.509                 52.403
 Frequency:      1216.93                1291.34                1325.84
 Force Cnst:      1.2081                 1.4374                 3.5510
 Red. Mass:       1.3846                 1.4630                 3.4286
 IR Intens:       34.574                156.627                730.591
 Frequency:      1363.71                1387.29                1426.79
 Force Cnst:      2.1437                 1.4630                 2.5658
 Red. Mass:       1.9564                 1.2902                 2.1392
 IR Intens:       80.905                 23.257                175.227
 Frequency:      1464.04                1465.33                1482.88
 Force Cnst:      1.6295                 2.3013                 1.3714
 Red. Mass:       1.2903                 1.8191                 1.0585
 IR Intens:      169.222                407.857                 14.036
 Frequency:      1518.70                3053.82                3057.18
 Force Cnst:      4.4588                 5.6817                 5.8414
 Red. Mass:       3.2811                 1.0340                 1.0608
 IR Intens:      913.264                 77.510                100.186
 Frequency:      3131.27                3139.26                3146.56
 Force Cnst:      6.3759                 6.3519                 6.4325
 Red. Mass:       1.1037                 1.0940                 1.1027
 IR Intens:       27.000                 18.612                  9.821
 Frequency:      3151.28                3375.89                3743.44
 Force Cnst:      6.4315                 7.2066                 8.7963
 Red. Mass:       1.0992                 1.0733                 1.0654
 IR Intens:       64.511                563.438                116.253

 STANDARD THERMODYNAMIC QUANTITIES AT   298.15 K  AND     1.00 ATM

   This Molecule has  1 Imaginary Frequencies
   Zero point vibrational energy:       81.400 kcal/mol

   Atom    1 Element C  Has Mass   12.00000
   Atom    2 Element O  Has Mass   15.99491
   Atom    3 Element O  Has Mass   15.99491
   Atom    4 Element C  Has Mass   12.00000
   Atom    5 Element H  Has Mass    1.00783
   Atom    6 Element H  Has Mass    1.00783
   Atom    7 Element C  Has Mass   12.00000
   Atom    8 Element H  Has Mass    1.00783
   Atom    9 Element H  Has Mass    1.00783
   Atom   10 Element C  Has Mass   12.00000
   Atom   11 Element O  Has Mass   15.99491
   Atom   12 Element H  Has Mass    1.00783
   Atom   13 Element O  Has Mass   15.99491
   Atom   14 Element O  Has Mass   15.99491
   Atom   15 Element C  Has Mass   12.00000
   Atom   16 Element H  Has Mass    1.00783
   Atom   17 Element H  Has Mass    1.00783
   Atom   18 Element H  Has Mass    1.00783
   Molecular Mass:   148.037190 amu
   Principal axes and moments of inertia in amu*Bohr^2:
                             1           2           3
    Eigenvalues --      800.27407  2175.78200  2457.50867
          X               0.91600    -0.31341    -0.25044
          Y               0.37919     0.47252     0.79557
          Z               0.13101     0.82371    -0.55167
   Rotational Symmetry Number is   1
   The Molecule is an Asymmetric Top
   Translational Enthalpy:        0.889 kcal/mol
   Rotational Enthalpy:           0.889 kcal/mol
   Vibrational Enthalpy:         86.273 kcal/mol
   gas constant (RT):             0.592 kcal/mol
   Translational Entropy:        40.887  cal/mol.K
   Rotational Entropy:           29.838  cal/mol.K
   Vibrational Entropy:          29.562  cal/mol.K

   Total Enthalpy:               88.643 kcal/mol
   Total Entropy:               100.287  cal/mol.K

 Total job time:  52574.19s(wall), 620397.06s(cpu)
        *  Thank you very much for using Q-Chem.  Have a nice day.  *
