 Q-Chem 5.0, Q-Chem, Inc., Pleasanton, CA (2017)
 Q-Chem 5.0.2 for Intel X86 EM64T Linux

User input:
--------------------------------------------------------------
$molecule
-2 1
C       -2.4837265555    0.8054852987   -1.0604535157
H       -2.2801762877    1.8631095557   -0.8742098689
H       -2.4721150455    0.6271006480   -2.1383295708
H       -3.4671246218    0.5509517618   -0.6608650417
C       -1.4311915867   -0.0514711853   -0.3844243750
C        0.9758328443   -0.3584447587   -0.5274814187
H        1.6156172305   -0.5123248548   -1.4030372013
H        0.7222389045   -1.3396745659   -0.1229637029
C        1.7080332788    0.4836117059    0.5067836064
H        1.0636870084    0.6141501741    1.3822192994
H        1.9015923064    1.4828402648    0.1018295325
C        3.0358153603   -0.1131952223    0.9888107283
O       -1.4200938598    0.2842689880    1.0038563700
O       -1.6886391334   -1.4004292031   -0.4800362333
H       -1.4958638000   -1.6397351099    0.5070298653
O       -0.2016938117    0.2959803658   -1.0090940223
O        3.8098549380    0.6653212626    1.6087688582
O        3.2586500285   -1.3304760831    0.7571336023
O       -1.1506088799   -0.9114025902    1.7804775412
$end

$rem
jobtype               freq
method                wb97x-v
basis                 def2-tzvpd
symmetry              off
sym_ignore            true
incdft                false
incfock               0
!scf_algorithm        diis_gdm
scf_convergence       8
thresh                14
!purecart             112
max_scf_cycles        1000
geom_opt_max_cycles   500
geom_opt_dmax         100
geom_opt_tol_gradient 10
solvent_method        pcm
ideriv                1
rpath_tol_displacement 1000
rpath_max_cycles      100
rpath_direction       1
!scf_guess            read
scf_guess             read
$end

$pcm
theory              cosmo
method              iswig
Radii               bondi
vdwScale            1.20
hpoints             110
heavypoints         110
$end

$solvent
dielectric 78.400000
$end

--------------------------------------------------------------

   17    -646.9601873763      5.47E-09 Convergence criterion met
 Total energy in the final basis set = -646.96018738
   16    -646.9601862639      3.40E-09 Convergence criterion met
 Total energy in the final basis set = -646.96018626
   15    -646.9601864937      3.43E-09 Convergence criterion met
 Total energy in the final basis set = -646.96018649
   15    -646.9601864327      7.64E-09 Convergence criterion met
 Total energy in the final basis set = -646.96018643
   15    -646.9601863171      3.85E-09 Convergence criterion met
 Total energy in the final basis set = -646.96018632
   15    -646.9601864385      7.03E-09 Convergence criterion met
 Total energy in the final basis set = -646.96018644
   15    -646.9601862553      4.09E-09 Convergence criterion met
 Total energy in the final basis set = -646.96018626
   16    -646.9601873256      3.61E-09 Convergence criterion met
 Total energy in the final basis set = -646.96018724
   15    -646.9601872768      9.41E-09 Convergence criterion met
 Total energy in the final basis set = -646.96018728
   15    -646.9601872352      8.62E-09 Convergence criterion met
 Total energy in the final basis set = -646.96018724
   16    -646.9601874272      3.78E-09 Convergence criterion met
 Total energy in the final basis set = -646.96018743
   15    -646.9601870387      7.43E-09 Convergence criterion met
 Total energy in the final basis set = -646.96018704
   15    -646.9601870075      6.69E-09 Convergence criterion met
 Total energy in the final basis set = -646.96018701
   16    -646.9601869673      5.53E-09 Convergence criterion met
 Total energy in the final basis set = -646.96018697
   15    -646.9601871822      6.27E-09 Convergence criterion met
 Total energy in the final basis set = -646.96018718

                    Orbital Energies (a.u.)
 --------------------------------------------------------------

 Alpha MOs
 -- Occupied --
-19.219 -19.199 -19.182 -19.160 -19.140 -19.137 -10.391 -10.340
-10.292 -10.246 -10.241  -1.222  -1.143  -1.136  -1.100  -1.048
 -0.939  -0.874  -0.836  -0.749  -0.669  -0.631  -0.608  -0.603
 -0.581  -0.548  -0.537  -0.520  -0.511  -0.494  -0.485  -0.479
 -0.473  -0.450  -0.441  -0.421  -0.409  -0.393  -0.370  -0.346
 -0.335  -0.330  -0.325  -0.289

          Ground-State Mulliken Net Atomic Charges

     Atom                 Charge (a.u.)
  ----------------------------------------
      1 C                    -1.196569
      2 H                     0.237549
      3 H                     0.253380
      4 H                     0.252234
      5 C                     0.637330
      6 C                    -0.039942
      7 H                     0.273480
      8 H                     0.120541
      9 C                    -0.099193
     10 H                     0.122359
     11 H                     0.259355
     12 C                     0.078193
     13 O                    -0.217902
     14 O                    -0.571939
     15 H                     0.412095
     16 O                    -0.347454
     17 O                    -0.716256
     18 O                    -0.695608
     19 O                    -0.761654
  ----------------------------------------
  Sum of atomic charges =    -2.000000

                    Cartesian Multipole Moments
 -----------------------------------------------------------------
    Charge (ESU x 10^10)
                -9.6064
    Dipole Moment (Debye)
         X     -12.2585      Y       5.0166      Z     -10.8961
       Tot      17.1512
    Quadrupole Moments (Debye-Ang)
        XX    -148.2735     XY      -0.3348     YY     -83.4634
        XZ     -19.1283     YZ       1.0526     ZZ     -94.1185

             Standard Nuclear Orientation (Angstroms)
    I     Atom           X                Y                Z
 ----------------------------------------------------------------
    1      C      -2.4837265555     0.8054852987    -1.0604535157
    2      H      -2.2801762877     1.8631095557    -0.8742098689
    3      H      -2.4721150455     0.6271006480    -2.1383295708
    4      H      -3.4671246218     0.5509517618    -0.6608650417
    5      C      -1.4311915867    -0.0514711853    -0.3844243750
    6      C       0.9758328443    -0.3584447587    -0.5274814187
    7      H       1.6156172305    -0.5123248548    -1.4030372013
    8      H       0.7222389045    -1.3396745659    -0.1229637029
    9      C       1.7080332788     0.4836117059     0.5067836064
   10      H       1.0636870084     0.6141501741     1.3822192994
   11      H       1.9015923064     1.4828402648     0.1018295325
   12      C       3.0358153603    -0.1131952223     0.9888107283
   13      O      -1.4200938598     0.2842689880     1.0038563700
   14      O      -1.6886391334    -1.4004292031    -0.4800362333
   15      H      -1.4958638000    -1.6397351099     0.5070298653
   16      O      -0.2016938117     0.2959803658    -1.0090940223
   17      O       3.8098549380     0.6653212626     1.6087688582
   18      O       3.2586500285    -1.3304760831     0.7571336023
   19      O      -1.1506088799    -0.9114025902     1.7804775412
 ----------------------------------------------------------------

 Frequency:        34.77                  47.69                  69.28
 Force Cnst:      0.0095                 0.0077                 0.0175
 Red. Mass:      13.3827                 5.7368                 6.1896
 IR Intens:        1.667                  3.280                  2.021
 Frequency:       109.95                 142.52                 191.91
 Force Cnst:      0.0186                 0.0824                 0.1337
 Red. Mass:       2.6082                 6.8844                 6.1629
 IR Intens:       13.473                  6.838                 17.003
 Frequency:       220.01                 263.22                 275.36
 Force Cnst:      0.0309                 0.1333                 0.2110
 Red. Mass:       1.0820                 3.2663                 4.7221
 IR Intens:        0.379                 24.360                  3.921
 Frequency:       334.43                 393.11                 435.60
 Force Cnst:      0.2297                 0.3530                 0.4871
 Red. Mass:       3.4854                 3.8774                 4.3569
 IR Intens:        9.812                146.044                 11.231
 Frequency:       487.15                 523.53                 603.79
 Force Cnst:      0.6868                 1.1842                 0.5461
 Red. Mass:       4.9118                 7.3330                 2.5423
 IR Intens:       34.425                  7.810                  5.629
 Frequency:       608.41                 639.37                 711.77
 Force Cnst:      0.8277                 1.0776                 1.6607
 Red. Mass:       3.7951                 4.4741                 5.5635
 IR Intens:        8.961                  2.583                 56.244
 Frequency:       797.04                 846.59                 860.13
 Force Cnst:      0.6335                 1.9561                 1.2563
 Red. Mass:       1.6926                 4.6322                 2.8821
 IR Intens:       38.836                  6.646                121.677
 Frequency:       896.02                 942.36                 962.91
 Force Cnst:      0.6172                 2.3517                 1.6318
 Red. Mass:       1.3048                 4.4946                 2.9870
 IR Intens:       53.697                 17.386                 45.084
 Frequency:       976.36                1063.42                1091.70
 Force Cnst:      1.6551                 2.2539                 1.6899
 Red. Mass:       2.9469                 3.3828                 2.4067
 IR Intens:       81.205                237.659                 35.501
 Frequency:      1095.64                1106.42                1144.59
 Force Cnst:      1.5318                 2.1478                 1.8908
 Red. Mass:       2.1658                 2.9778                 2.4496
 IR Intens:        5.035                115.958                292.535
 Frequency:      1244.59                1282.70                1300.59
 Force Cnst:      1.2931                 1.4169                 2.7998
 Red. Mass:       1.4169                 1.4617                 2.8093
 IR Intens:       56.176                 15.706                203.870
 Frequency:      1329.58                1407.07                1409.24
 Force Cnst:      1.1858                 1.7063                 1.7267
 Red. Mass:       1.1385                 1.4628                 1.4757
 IR Intens:       12.331                125.478                 38.811
 Frequency:      1440.08                1452.35                1457.64
 Force Cnst:      8.0642                 1.5709                 1.4274
 Red. Mass:       6.5999                 1.2641                 1.1402
 IR Intens:      405.050                393.438                 29.049
 Frequency:      1468.71                1481.30                1497.10
 Force Cnst:      1.3451                 1.5560                 1.4752
 Red. Mass:       1.0584                 1.2036                 1.1171
 IR Intens:        7.574                235.816                109.779
 Frequency:      1579.73                2670.35                3065.09
 Force Cnst:     14.7414                 4.4601                 5.8903
 Red. Mass:      10.0259                 1.0616                 1.0642
 IR Intens:     1284.494               1017.366                 81.759
 Frequency:      3067.63                3069.60                3114.21
 Force Cnst:      5.8914                 5.7676                 6.2715
 Red. Mass:       1.0626                 1.0389                 1.0975
 IR Intens:       40.322                 14.700                 12.341
 Frequency:      3142.74                3147.90                3157.60
 Force Cnst:      6.4005                 6.4410                 6.4866
 Red. Mass:       1.0999                 1.1032                 1.1042
 IR Intens:       35.280                 32.798                 32.638

 STANDARD THERMODYNAMIC QUANTITIES AT   298.15 K  AND     1.00 ATM

   This Molecule has  0 Imaginary Frequencies
   Zero point vibrational energy:       86.719 kcal/mol

   Atom    1 Element C  Has Mass   12.00000
   Atom    2 Element H  Has Mass    1.00783
   Atom    3 Element H  Has Mass    1.00783
   Atom    4 Element H  Has Mass    1.00783
   Atom    5 Element C  Has Mass   12.00000
   Atom    6 Element C  Has Mass   12.00000
   Atom    7 Element H  Has Mass    1.00783
   Atom    8 Element H  Has Mass    1.00783
   Atom    9 Element C  Has Mass   12.00000
   Atom   10 Element H  Has Mass    1.00783
   Atom   11 Element H  Has Mass    1.00783
   Atom   12 Element C  Has Mass   12.00000
   Atom   13 Element O  Has Mass   15.99491
   Atom   14 Element O  Has Mass   15.99491
   Atom   15 Element H  Has Mass    1.00783
   Atom   16 Element O  Has Mass   15.99491
   Atom   17 Element O  Has Mass   15.99491
   Atom   18 Element O  Has Mass   15.99491
   Atom   19 Element O  Has Mass   15.99491
   Molecular Mass:   164.032100 amu
   Principal axes and moments of inertia in amu*Bohr^2:
                             1           2           3
    Eigenvalues --      802.63599  3239.80814  3369.11782
          X               0.96829    -0.22182    -0.11492
          Y              -0.00086    -0.46298     0.88637
          Z               0.24982     0.85817     0.44849
   Rotational Symmetry Number is   1
   The Molecule is an Asymmetric Top
   Translational Enthalpy:        0.889 kcal/mol
   Rotational Enthalpy:           0.889 kcal/mol
   Vibrational Enthalpy:         92.045 kcal/mol
   gas constant (RT):             0.592 kcal/mol
   Translational Entropy:        41.193  cal/mol.K
   Rotational Entropy:           30.550  cal/mol.K
   Vibrational Entropy:          35.520  cal/mol.K

   Total Enthalpy:               94.414 kcal/mol
   Total Entropy:               107.262  cal/mol.K

 Total job time:  50686.35s(wall), 718965.68s(cpu)
        *  Thank you very much for using Q-Chem.  Have a nice day.  *
