 Q-Chem 5.0, Q-Chem, Inc., Pleasanton, CA (2017)
 Q-Chem 5.0.2 for Intel X86 EM64T Linux

User input:
--------------------------------------------------------------
$molecule
-2 1
C       -2.2999631103    1.2845490739   -0.7292864459
H       -1.6006830988    2.0958927248   -0.5158228370
H       -2.5876909470    1.3290535632   -1.7825004692
H       -3.1947059998    1.4064560263   -0.1116586307
C       -1.6275156365   -0.0490838183   -0.4423541990
C        1.0234322233   -0.9495757257   -0.0250846185
H        1.3469185648   -1.0634512688   -1.0574342648
H        1.1933708211   -1.8868358301    0.5017248618
C        1.6404901007    0.2493972078    0.6289161089
H        1.3078527159    0.3431876915    1.6652273745
H        1.3388191441    1.1622611643    0.1088229335
C        3.1816530258    0.1993001539    0.6318533706
O       -1.4147828499   -0.0864849544    0.9771659219
O       -2.6022112916   -1.0726940031   -0.7549111003
H       -2.1663816754   -1.8953701569   -0.4920416073
O       -0.4791395934   -0.2496955850   -1.0847853561
O        3.7645720142    1.2195478893    1.0828850371
O        3.7472754795   -0.8386797493    0.2016367438
O       -0.5713098870   -1.1977744036    1.1976471766
$end

$rem
jobtype               freq
method                wb97x-v
basis                 def2-tzvpd
symmetry              off
sym_ignore            true
incdft                false
incfock               0
!scf_algorithm        diis_gdm
scf_convergence       8
thresh                14
!purecart             112
max_scf_cycles        1000
geom_opt_max_cycles   500
geom_opt_dmax         100
geom_opt_tol_gradient 10
solvent_method        pcm
ideriv                1
rpath_tol_displacement 1000
rpath_max_cycles      100
rpath_direction       1
!scf_guess            read
scf_guess             read
$end

$pcm
theory              cosmo
method              iswig
Radii               bondi
vdwScale            1.20
hpoints             110
heavypoints         110
$end

$solvent
dielectric 78.400000
$end

--------------------------------------------------------------

   17    -646.8659728479      3.84E-09 Convergence criterion met
 Total energy in the final basis set = -646.86597285
   15    -646.8659718319      7.69E-09 Convergence criterion met
 Total energy in the final basis set = -646.86597183
   15    -646.8659718188      2.73E-09 Convergence criterion met
 Total energy in the final basis set = -646.86597182
   15    -646.8659719199      2.96E-09 Convergence criterion met
 Total energy in the final basis set = -646.86597192
   15    -646.8659719231      2.51E-09 Convergence criterion met
 Total energy in the final basis set = -646.86597192
   15    -646.8659717753      2.96E-09 Convergence criterion met
 Total energy in the final basis set = -646.86597178
   15    -646.8659718308      2.66E-09 Convergence criterion met
 Total energy in the final basis set = -646.86597183
   15    -646.8659725456      8.04E-09 Convergence criterion met
 Total energy in the final basis set = -646.86597272
   15    -646.8659726234      3.52E-09 Convergence criterion met
 Total energy in the final basis set = -646.86597262
   15    -646.8659725685      3.85E-09 Convergence criterion met
 Total energy in the final basis set = -646.86597257
   15    -646.8659726058      3.21E-09 Convergence criterion met
 Total energy in the final basis set = -646.86597261
   14    -646.8659724637      9.95E-09 Convergence criterion met
 Total energy in the final basis set = -646.86597246
   15    -646.8659724496      3.09E-09 Convergence criterion met
 Total energy in the final basis set = -646.86597245
   15    -646.8659727140      8.01E-09 Convergence criterion met
 Total energy in the final basis set = -646.86597271
   14    -646.8659727012      9.07E-09 Convergence criterion met
 Total energy in the final basis set = -646.86597270

                    Orbital Energies (a.u.)
 --------------------------------------------------------------

 Alpha MOs
 -- Occupied --
-19.217 -19.187 -19.169 -19.141 -19.139 -19.138 -10.370 -10.344
-10.316 -10.245 -10.241  -1.211  -1.145  -1.123  -1.055  -1.051
 -0.932  -0.873  -0.829  -0.733  -0.673  -0.611  -0.604  -0.575
 -0.553  -0.548  -0.538  -0.517  -0.500  -0.497  -0.481  -0.474
 -0.463  -0.448  -0.441  -0.420  -0.399  -0.363  -0.348  -0.342
 -0.332  -0.328  -0.310  -0.282

          Ground-State Mulliken Net Atomic Charges

     Atom                 Charge (a.u.)
  ----------------------------------------
      1 C                    -1.214763
      2 H                     0.218581
      3 H                     0.274440
      4 H                     0.246421
      5 C                     0.797268
      6 C                     0.345353
      7 H                     0.166207
      8 H                     0.178358
      9 C                    -0.170484
     10 H                     0.201176
     11 H                     0.149093
     12 C                     0.023809
     13 O                    -0.257631
     14 O                    -0.547734
     15 H                     0.341625
     16 O                    -0.703883
     17 O                    -0.701826
     18 O                    -0.689217
     19 O                    -0.656791
  ----------------------------------------
  Sum of atomic charges =    -2.000000

                    Cartesian Multipole Moments
 -----------------------------------------------------------------
    Charge (ESU x 10^10)
                -9.6064
    Dipole Moment (Debye)
         X     -12.4842      Y       2.1620      Z      -3.9269
       Tot      13.2646
    Quadrupole Moments (Debye-Ang)
        XX    -161.9019     XY     -10.0038     YY     -79.2519
        XZ     -12.5482     YZ      -2.4585     ZZ     -85.1719

             Standard Nuclear Orientation (Angstroms)
    I     Atom           X                Y                Z
 ----------------------------------------------------------------
    1      C      -2.2999631103     1.2845490739    -0.7292864459
    2      H      -1.6006830988     2.0958927248    -0.5158228370
    3      H      -2.5876909470     1.3290535632    -1.7825004692
    4      H      -3.1947059998     1.4064560263    -0.1116586307
    5      C      -1.6275156365    -0.0490838183    -0.4423541990
    6      C       1.0234322233    -0.9495757257    -0.0250846185
    7      H       1.3469185648    -1.0634512688    -1.0574342648
    8      H       1.1933708211    -1.8868358301     0.5017248618
    9      C       1.6404901007     0.2493972078     0.6289161089
   10      H       1.3078527159     0.3431876915     1.6652273745
   11      H       1.3388191441     1.1622611643     0.1088229335
   12      C       3.1816530258     0.1993001539     0.6318533706
   13      O      -1.4147828499    -0.0864849544     0.9771659219
   14      O      -2.6022112916    -1.0726940031    -0.7549111003
   15      H      -2.1663816754    -1.8953701569    -0.4920416073
   16      O      -0.4791395934    -0.2496955850    -1.0847853561
   17      O       3.7645720142     1.2195478893     1.0828850371
   18      O       3.7472754795    -0.8386797493     0.2016367438
   19      O      -0.5713098870    -1.1977744036     1.1976471766
 ----------------------------------------------------------------

 Frequency:      -638.26                  33.33                  37.35
 Force Cnst:      0.9932                 0.0065                 0.0043
 Red. Mass:       4.1381                10.0059                 5.2330
 IR Intens:      291.859                  1.383                  1.513
 Frequency:        59.07                 111.89                 153.58
 Force Cnst:      0.0095                 0.0223                 0.0540
 Red. Mass:       4.6077                 3.0289                 3.8830
 IR Intens:       15.681                 25.859                  1.019
 Frequency:       185.15                 210.15                 229.75
 Force Cnst:      0.1561                 0.0349                 0.0504
 Red. Mass:       7.7275                 1.3400                 1.6221
 IR Intens:       21.680                 34.397                 35.098
 Frequency:       304.53                 333.92                 372.55
 Force Cnst:      0.1531                 0.1552                 0.2610
 Red. Mass:       2.8028                 2.3630                 3.1918
 IR Intens:       94.234                 50.610                  4.441
 Frequency:       418.69                 491.47                 544.37
 Force Cnst:      0.6073                 0.9317                 1.2588
 Red. Mass:       5.8800                 6.5470                 7.2096
 IR Intens:      185.803                 56.368                116.203
 Frequency:       559.05                 583.23                 587.41
 Force Cnst:      0.9166                 1.4897                 0.4270
 Red. Mass:       4.9777                 7.4330                 2.1004
 IR Intens:       40.667                 57.266                  9.092
 Frequency:       662.06                 702.71                 803.19
 Force Cnst:      1.4961                 1.7818                 0.5302
 Red. Mass:       5.7932                 6.1243                 1.3949
 IR Intens:       66.808                  2.667                 10.230
 Frequency:       818.68                 843.76                 921.31
 Force Cnst:      2.1434                 1.2178                 1.1165
 Red. Mass:       5.4277                 2.9032                 2.2326
 IR Intens:      117.459                194.616                186.602
 Frequency:       922.37                1020.74                1043.86
 Force Cnst:      1.6962                 3.0944                 1.0897
 Red. Mass:       3.3840                 5.0407                 1.6974
 IR Intens:        4.695                 19.158                 59.991
 Frequency:      1088.06                1096.51                1118.42
 Force Cnst:      1.2369                 1.2992                 1.5371
 Red. Mass:       1.7733                 1.8339                 2.0856
 IR Intens:       72.310                 13.787                 34.735
 Frequency:      1119.29                1187.48                1251.56
 Force Cnst:      1.6403                 1.2804                 1.5822
 Red. Mass:       2.2222                 1.5411                 1.7143
 IR Intens:      274.714                173.353                112.231
 Frequency:      1264.03                1312.11                1359.33
 Force Cnst:      1.1302                 1.5738                 1.6539
 Red. Mass:       1.2006                 1.5515                 1.5191
 IR Intens:       11.212                 96.848                105.470
 Frequency:      1415.59                1427.85                1459.45
 Force Cnst:     10.3177                 2.8391                 1.4291
 Red. Mass:       8.7389                 2.3635                 1.1388
 IR Intens:      573.768                 93.307                 31.229
 Frequency:      1467.14                1470.53                1532.97
 Force Cnst:      1.3379                 1.3361                 1.5714
 Red. Mass:       1.0550                 1.0486                 1.1349
 IR Intens:        3.427                  2.924                  8.143
 Frequency:      1585.72                3062.30                3090.10
 Force Cnst:     14.9858                 5.7246                 5.9690
 Red. Mass:      10.1153                 1.0361                 1.0610
 IR Intens:     1289.553                 30.019                 24.133
 Frequency:      3105.74                3133.19                3138.92
 Force Cnst:      6.0063                 6.3765                 6.3987
 Red. Mass:       1.0569                 1.1025                 1.1023
 IR Intens:      118.663                  1.507                 36.843
 Frequency:      3150.91                3158.80                3793.67
 Force Cnst:      6.4568                 6.5331                 9.0282
 Red. Mass:       1.1038                 1.1113                 1.0647
 IR Intens:       35.708                113.809                 59.286

 STANDARD THERMODYNAMIC QUANTITIES AT   298.15 K  AND     1.00 ATM

   This Molecule has  1 Imaginary Frequencies
   Zero point vibrational energy:       85.408 kcal/mol

   Atom    1 Element C  Has Mass   12.00000
   Atom    2 Element H  Has Mass    1.00783
   Atom    3 Element H  Has Mass    1.00783
   Atom    4 Element H  Has Mass    1.00783
   Atom    5 Element C  Has Mass   12.00000
   Atom    6 Element C  Has Mass   12.00000
   Atom    7 Element H  Has Mass    1.00783
   Atom    8 Element H  Has Mass    1.00783
   Atom    9 Element C  Has Mass   12.00000
   Atom   10 Element H  Has Mass    1.00783
   Atom   11 Element H  Has Mass    1.00783
   Atom   12 Element C  Has Mass   12.00000
   Atom   13 Element O  Has Mass   15.99491
   Atom   14 Element O  Has Mass   15.99491
   Atom   15 Element H  Has Mass    1.00783
   Atom   16 Element O  Has Mass   15.99491
   Atom   17 Element O  Has Mass   15.99491
   Atom   18 Element O  Has Mass   15.99491
   Atom   19 Element O  Has Mass   15.99491
   Molecular Mass:   164.032100 amu
   Principal axes and moments of inertia in amu*Bohr^2:
                             1           2           3
    Eigenvalues --      716.03796  3513.10050  3658.57586
          X               0.98098    -0.04828    -0.18800
          Y               0.06299     0.99533     0.07308
          Z               0.18359    -0.08354     0.97945
   Rotational Symmetry Number is   1
   The Molecule is an Asymmetric Top
   Translational Enthalpy:        0.889 kcal/mol
   Rotational Enthalpy:           0.889 kcal/mol
   Vibrational Enthalpy:         90.887 kcal/mol
   gas constant (RT):             0.592 kcal/mol
   Translational Entropy:        41.193  cal/mol.K
   Rotational Entropy:           30.599  cal/mol.K
   Vibrational Entropy:          37.018  cal/mol.K

   Total Enthalpy:               93.257 kcal/mol
   Total Entropy:               108.810  cal/mol.K

 Total job time:  165746.69s(wall), 640727.45s(cpu)
        *  Thank you very much for using Q-Chem.  Have a nice day.  *
