 Q-Chem 5.0, Q-Chem, Inc., Pleasanton, CA (2017)
 Q-Chem 5.0.2 for Intel X86 EM64T Linux

User input:
--------------------------------------------------------------
$molecule
-2 1
C       -1.3575252028   -0.9929580839   -1.3076220696
C       -2.2339720822   -0.7404326584   -2.5440621922
O       -3.0338660089   -1.6608556696   -2.8586439614
O       -2.1016504893    0.3554735609   -3.1468174247
C       -0.2830543029    0.0565227576   -1.0837913796
H       -0.8968118603   -1.9814090840   -1.4114714371
H       -2.0159074467   -1.0434371812   -0.4333614751
O        0.5595889371   -0.2938269122    0.0243613976
H       -0.7178709113    1.0411047449   -0.9110429304
H        0.3815382283    0.1156277146   -1.9492673482
C        0.2437965408    0.2445299883    1.2345279975
C        1.1650904332   -0.2981470230    2.2964155921
H        0.8681032765   -1.3301627512    2.5176599978
H        1.0688940708    0.3003389024    3.2019483609
H        2.2008904893   -0.2989785314    1.9557633929
O       -0.8743899389    0.6994780915    1.4764284297
O        1.2648543900    2.0690491225    1.0247924895
O        2.6318805758    1.9468584000    0.5494137876
H        3.1304113016    1.8112246122    1.3647687727
$end

$rem
jobtype               freq
method                wb97x-v
basis                 def2-tzvpd
symmetry              off
sym_ignore            true
incdft                false
incfock               0
!scf_algorithm        diis_gdm
scf_convergence       8
thresh                14
!purecart             112
max_scf_cycles        1000
geom_opt_max_cycles   500
geom_opt_dmax         100
geom_opt_tol_gradient 10
solvent_method        pcm
ideriv                1
rpath_tol_displacement 1000
rpath_max_cycles      100
rpath_direction       1
!scf_guess            read
scf_guess             read
$end

$pcm
theory              cosmo
method              iswig
Radii               bondi
vdwScale            1.20
hpoints             110
heavypoints         110
$end

$solvent
dielectric 78.400000
$end

--------------------------------------------------------------

   17    -646.9495646613      8.66E-09 Convergence criterion met
 Total energy in the final basis set = -646.94956466
   16    -646.9495637035      4.26E-09 Convergence criterion met
 Total energy in the final basis set = -646.94956370
   15    -646.9495637624      6.45E-09 Convergence criterion met
 Total energy in the final basis set = -646.94956376
   15    -646.9495636705      9.40E-09 Convergence criterion met
 Total energy in the final basis set = -646.94956367
   15    -646.9495636312      6.54E-09 Convergence criterion met
 Total energy in the final basis set = -646.94956363
   15    -646.9495637661      9.43E-09 Convergence criterion met
 Total energy in the final basis set = -646.94956377
   15    -646.9495637347      7.19E-09 Convergence criterion met
 Total energy in the final basis set = -646.94956373
   16    -646.9495638027      4.24E-09 Convergence criterion met
 Total energy in the final basis set = -646.94956379
   15    -646.9495638677      9.41E-09 Convergence criterion met
 Total energy in the final basis set = -646.94956387
   16    -646.9495643951      4.14E-09 Convergence criterion met
 Total energy in the final basis set = -646.94956440
   17    -646.9495643034      6.76E-10 Convergence criterion met
 Total energy in the final basis set = -646.94956430
   17    -646.9495645798      1.54E-09 Convergence criterion met
 Total energy in the final basis set = -646.94956458
   17    -646.9495647020      1.29E-09 Convergence criterion met
 Total energy in the final basis set = -646.94956470
   17    -646.9495639423      1.03E-09 Convergence criterion met
 Total energy in the final basis set = -646.94956394
   15    -646.9495639900      5.75E-09 Convergence criterion met
 Total energy in the final basis set = -646.94956399

                    Orbital Energies (a.u.)
 --------------------------------------------------------------

 Alpha MOs
 -- Occupied --
-19.221 -19.210 -19.157 -19.151 -19.141 -19.139 -10.382 -10.343
-10.299 -10.248 -10.248  -1.200  -1.151  -1.145  -1.107  -1.050
 -0.900  -0.888  -0.846  -0.760  -0.656  -0.613  -0.596  -0.577
 -0.571  -0.551  -0.541  -0.530  -0.517  -0.498  -0.487  -0.479
 -0.473  -0.450  -0.446  -0.429  -0.421  -0.382  -0.356  -0.348
 -0.335  -0.332  -0.311  -0.279

          Ground-State Mulliken Net Atomic Charges

     Atom                 Charge (a.u.)
  ----------------------------------------
      1 C                    -0.083163
      2 C                     0.067372
      3 O                    -0.707528
      4 O                    -0.691297
      5 C                    -0.196384
      6 H                     0.253413
      7 H                     0.175433
      8 O                    -0.266988
      9 H                     0.163929
     10 H                     0.239499
     11 C                     0.813037
     12 C                    -1.037268
     13 H                     0.261907
     14 H                     0.216894
     15 H                     0.221765
     16 O                    -0.639000
     17 O                    -0.653004
     18 O                    -0.452239
     19 H                     0.313623
  ----------------------------------------
  Sum of atomic charges =    -2.000000

                    Cartesian Multipole Moments
 -----------------------------------------------------------------
    Charge (ESU x 10^10)
                -9.6064
    Dipole Moment (Debye)
         X      10.7650      Y      -6.3526      Z      11.3848
       Tot      16.9072
    Quadrupole Moments (Debye-Ang)
        XX    -115.8360     XY     -20.7775     YY    -100.0429
        XZ     -36.5527     YZ     -16.2845     ZZ    -122.2209

             Standard Nuclear Orientation (Angstroms)
    I     Atom           X                Y                Z
 ----------------------------------------------------------------
    1      C      -1.3575252028    -0.9929580839    -1.3076220696
    2      C      -2.2339720822    -0.7404326584    -2.5440621922
    3      O      -3.0338660089    -1.6608556696    -2.8586439614
    4      O      -2.1016504893     0.3554735609    -3.1468174247
    5      C      -0.2830543029     0.0565227576    -1.0837913796
    6      H      -0.8968118603    -1.9814090840    -1.4114714371
    7      H      -2.0159074467    -1.0434371812    -0.4333614751
    8      O       0.5595889371    -0.2938269122     0.0243613976
    9      H      -0.7178709113     1.0411047449    -0.9110429304
   10      H       0.3815382283     0.1156277146    -1.9492673482
   11      C       0.2437965408     0.2445299883     1.2345279975
   12      C       1.1650904332    -0.2981470230     2.2964155921
   13      H       0.8681032765    -1.3301627512     2.5176599978
   14      H       1.0688940708     0.3003389024     3.2019483609
   15      H       2.2008904893    -0.2989785314     1.9557633929
   16      O      -0.8743899389     0.6994780915     1.4764284297
   17      O       1.2648543900     2.0690491225     1.0247924895
   18      O       2.6318805758     1.9468584000     0.5494137876
   19      H       3.1304113016     1.8112246122     1.3647687727
 ----------------------------------------------------------------

 Frequency:      -181.84                  22.76                  41.43
 Force Cnst:      0.2215                 0.0040                 0.0079
 Red. Mass:      11.3712                13.1020                 7.8351
 IR Intens:      383.181                  2.100                  0.490
 Frequency:        50.81                  89.10                  98.31
 Force Cnst:      0.0087                 0.0144                 0.0164
 Red. Mass:       5.7319                 3.0696                 2.8833
 IR Intens:        5.288                 20.350                  3.243
 Frequency:       143.63                 173.08                 197.75
 Force Cnst:      0.0510                 0.0219                 0.1384
 Red. Mass:       4.1996                 1.2420                 6.0063
 IR Intens:       33.804                 84.759                  9.356
 Frequency:       220.86                 246.57                 285.38
 Force Cnst:      0.1366                 0.0405                 0.1399
 Red. Mass:       4.7530                 1.1315                 2.9153
 IR Intens:       20.126                 58.187                 26.525
 Frequency:       331.54                 359.76                 465.49
 Force Cnst:      0.3321                 0.4906                 0.5748
 Red. Mass:       5.1276                 6.4341                 4.5023
 IR Intens:       11.982                 25.120                 12.882
 Frequency:       491.05                 554.14                 594.98
 Force Cnst:      0.6891                 0.7477                 0.4134
 Red. Mass:       4.8507                 4.1326                 1.9823
 IR Intens:       29.373                189.195                  7.436
 Frequency:       641.58                 707.44                 789.92
 Force Cnst:      1.0866                 1.7673                 0.6078
 Red. Mass:       4.4803                 5.9937                 1.6534
 IR Intens:        7.707                 55.374                 40.563
 Frequency:       860.39                 936.57                 947.04
 Force Cnst:      1.4388                 2.3993                 7.9005
 Red. Mass:       3.2988                 4.6426                14.9510
 IR Intens:       39.693                 15.436                 28.038
 Frequency:       998.78                1035.23                1081.44
 Force Cnst:      1.1448                 0.9779                 2.8818
 Red. Mass:       1.9478                 1.5488                 4.1822
 IR Intens:       48.057                107.226                132.976
 Frequency:      1091.63                1107.85                1230.45
 Force Cnst:      1.4849                 2.0383                 1.9558
 Red. Mass:       2.1149                 2.8187                 2.1925
 IR Intens:       18.239                 55.834                339.914
 Frequency:      1249.34                1277.64                1284.62
 Force Cnst:      1.4723                 1.0680                 1.4701
 Red. Mass:       1.6010                 1.1105                 1.5120
 IR Intens:      233.740                 63.755                 42.015
 Frequency:      1324.10                1391.02                1412.04
 Force Cnst:      1.1713                 1.5365                 1.9460
 Red. Mass:       1.1340                 1.3478                 1.6565
 IR Intens:       27.533                 53.187                128.678
 Frequency:      1434.03                1456.05                1458.13
 Force Cnst:      5.4606                 1.4686                 1.3566
 Red. Mass:       4.5068                 1.1757                 1.0829
 IR Intens:      282.269                 32.073                 11.181
 Frequency:      1470.22                1482.74                1588.23
 Force Cnst:      1.3363                 1.4402                15.4723
 Red. Mass:       1.0492                 1.1118                10.4107
 IR Intens:       11.950                 18.350               1287.596
 Frequency:      1657.60                3060.25                3065.24
 Force Cnst:     15.5994                 5.7594                 5.8741
 Red. Mass:       9.6360                 1.0438                 1.0611
 IR Intens:      685.130                 25.378                 31.051
 Frequency:      3091.74                3107.16                3140.60
 Force Cnst:      6.0004                 6.2463                 6.3455
 Red. Mass:       1.0654                 1.0981                 1.0919
 IR Intens:       52.014                 26.174                 22.822
 Frequency:      3157.66                3179.44                3801.03
 Force Cnst:      6.4902                 6.5833                 9.0950
 Red. Mass:       1.1048                 1.1053                 1.0684
 IR Intens:       28.884                 22.348                 33.939

 STANDARD THERMODYNAMIC QUANTITIES AT   298.15 K  AND     1.00 ATM

   This Molecule has  1 Imaginary Frequencies
   Zero point vibrational energy:       85.608 kcal/mol

   Atom    1 Element C  Has Mass   12.00000
   Atom    2 Element C  Has Mass   12.00000
   Atom    3 Element O  Has Mass   15.99491
   Atom    4 Element O  Has Mass   15.99491
   Atom    5 Element C  Has Mass   12.00000
   Atom    6 Element H  Has Mass    1.00783
   Atom    7 Element H  Has Mass    1.00783
   Atom    8 Element O  Has Mass   15.99491
   Atom    9 Element H  Has Mass    1.00783
   Atom   10 Element H  Has Mass    1.00783
   Atom   11 Element C  Has Mass   12.00000
   Atom   12 Element C  Has Mass   12.00000
   Atom   13 Element H  Has Mass    1.00783
   Atom   14 Element H  Has Mass    1.00783
   Atom   15 Element H  Has Mass    1.00783
   Atom   16 Element O  Has Mass   15.99491
   Atom   17 Element O  Has Mass   15.99491
   Atom   18 Element O  Has Mass   15.99491
   Atom   19 Element H  Has Mass    1.00783
   Molecular Mass:   164.032100 amu
   Principal axes and moments of inertia in amu*Bohr^2:
                             1           2           3
    Eigenvalues --      818.43214  3827.59298  4188.41864
          X               0.65177    -0.36226    -0.66630
          Y               0.33237    -0.65325     0.68029
          Z               0.68170     0.66486     0.30536
   Rotational Symmetry Number is   1
   The Molecule is an Asymmetric Top
   Translational Enthalpy:        0.889 kcal/mol
   Rotational Enthalpy:           0.889 kcal/mol
   Vibrational Enthalpy:         91.671 kcal/mol
   gas constant (RT):             0.592 kcal/mol
   Translational Entropy:        41.193  cal/mol.K
   Rotational Entropy:           30.951  cal/mol.K
   Vibrational Entropy:          42.777  cal/mol.K

   Total Enthalpy:               94.041 kcal/mol
   Total Entropy:               114.921  cal/mol.K

 Total job time:  160204.75s(wall), 617971.33s(cpu)
        *  Thank you very much for using Q-Chem.  Have a nice day.  *
