 Q-Chem 5.0, Q-Chem, Inc., Pleasanton, CA (2017)
 Q-Chem 5.0.2 for Intel X86 EM64T Linux

User input:
--------------------------------------------------------------
$molecule
-2 1
C       -2.4062393994    0.7560923394    0.8548581569
C       -0.1747544032    1.0131927503    0.0297716509
C        0.8711391979    0.1937819589   -0.6893982853
H       -0.4537113851    1.9170040470   -0.5218378138
H        0.1811169082    1.2992396570    1.0220264302
H        1.7235761001    0.8915789618   -0.8577608939
O       -1.3804843433    0.2010012624    0.1942735090
C       -3.5786690524   -0.1927719097    0.9471066890
H       -4.3857735097    0.2708648599    1.5160453245
H       -3.9345175629   -0.4461639201   -0.0573857813
H       -3.2706397069   -1.1251181819    1.4316351115
O       -2.3861901232    1.8850629498    1.3170982223
H        0.4927558299   -0.1524185246   -1.6595684250
C        1.4165220987   -0.9957759910    0.1378639476
O        1.6319678701   -2.0757180711   -0.4794531526
O        1.6498639270   -0.7678374305    1.3615688539
O        3.2274925856    2.3274474575   -0.5258744060
H        3.1036848033    1.8202784688    0.2958444745
$end

$rem
jobtype               force
method                b3lyp
basis                 6-31g*
symmetry              off
sym_ignore            true
incdft                false
incfock               0
!scf_algorithm        diis_gdm
scf_convergence       8
thresh                14
!purecart             112
max_scf_cycles        1000
geom_opt_max_cycles   500
geom_opt_dmax         100
geom_opt_tol_gradient 10
solvent_method        pcm
ideriv                1
rpath_tol_displacement 1000
rpath_max_cycles      50
rpath_direction       1
!scf_guess            read
scf_guess             read
geom_opt_hessian      read
$end

$pcm
theory              cosmo
method              iswig
Radii               bondi
vdwScale            1.20
hpoints             110
heavypoints         110
$end

$solvent
dielectric 78.400000
$end

--------------------------------------------------------------

             Standard Nuclear Orientation (Angstroms)
    I     Atom           X                Y                Z
 ----------------------------------------------------------------
    1      C      -2.4062393994     0.7560923394     0.8548581569
    2      C      -0.1747544032     1.0131927503     0.0297716509
    3      C       0.8711391979     0.1937819589    -0.6893982853
    4      H      -0.4537113851     1.9170040470    -0.5218378138
    5      H       0.1811169082     1.2992396570     1.0220264302
    6      H       1.7235761001     0.8915789618    -0.8577608939
    7      O      -1.3804843433     0.2010012624     0.1942735090
    8      C      -3.5786690524    -0.1927719097     0.9471066890
    9      H      -4.3857735097     0.2708648599     1.5160453245
   10      H      -3.9345175629    -0.4461639201    -0.0573857813
   11      H      -3.2706397069    -1.1251181819     1.4316351115
   12      O      -2.3861901232     1.8850629498     1.3170982223
   13      H       0.4927558299    -0.1524185246    -1.6595684250
   14      C       1.4165220987    -0.9957759910     0.1378639476
   15      O       1.6319678701    -2.0757180711    -0.4794531526
   16      O       1.6498639270    -0.7678374305     1.3615688539
   17      O       3.2274925856     2.3274474575    -0.5258744060
   18      H       3.1036848033     1.8202784688     0.2958444745
 ----------------------------------------------------------------

   18    -571.6832510979      1.16E-09 Convergence criterion met
 Total energy in the final basis set = -571.68325110

                    Orbital Energies (a.u.)
 --------------------------------------------------------------

 Alpha MOs
 -- Occupied --
-19.178 -19.129 -19.045 -19.044 -18.957 -10.310 -10.231 -10.219
-10.184 -10.139  -1.088  -1.002  -0.974  -0.886  -0.775  -0.764
 -0.720  -0.619  -0.551  -0.484  -0.481  -0.464  -0.446  -0.420
 -0.404  -0.387  -0.380  -0.375  -0.355  -0.347  -0.324  -0.313
 -0.291  -0.279  -0.266  -0.209  -0.196  -0.189  -0.132  -0.131

          Ground-State Mulliken Net Atomic Charges

     Atom                 Charge (a.u.)
  ----------------------------------------
      1 C                     0.613589
      2 C                    -0.036184
      3 C                    -0.404507
      4 H                     0.141763
      5 H                     0.142980
      6 H                     0.137553
      7 O                    -0.461790
      8 C                    -0.536426
      9 H                     0.180718
     10 H                     0.196194
     11 H                     0.195227
     12 O                    -0.536441
     13 H                     0.098421
     14 C                     0.508528
     15 O                    -0.690903
     16 O                    -0.685542
     17 O                    -1.119388
     18 H                     0.256209
  ----------------------------------------
  Sum of atomic charges =    -2.000000

                    Cartesian Multipole Moments
 -----------------------------------------------------------------
    Charge (ESU x 10^10)
                -9.6064
    Dipole Moment (Debye)
         X     -21.2054      Y      -5.5710      Z      -0.3126
       Tot      21.9272
    Quadrupole Moments (Debye-Ang)
        XX    -118.5291     XY     -13.7423     YY    -107.6348
        XZ       8.6952     YZ       1.7093     ZZ     -71.2935

 Total job time:  20.50s(wall), 76.95s(cpu)
        *  Thank you very much for using Q-Chem.  Have a nice day.  *
