 Q-Chem 5.0, Q-Chem, Inc., Pleasanton, CA (2017)
 Q-Chem 5.0.2 for Intel X86 EM64T Linux

User input:
--------------------------------------------------------------
$molecule
-2 1
C       -2.4342025585    0.2284444545   -0.0067350295
C       -0.0437093700    0.7012369894   -0.0993299956
C        1.2319802862    0.1114135175   -0.5586662522
H       -0.2910372667    1.6522727181   -0.5834539751
H       -0.0464520052    0.8374068760    0.9845096004
H        2.1166857935    1.2033287645   -0.3791164975
O       -1.2357407245   -0.1980134515   -0.3916006888
C       -3.5249366100   -0.7685564487   -0.3466831832
H       -4.5046691301   -0.3293966084   -0.1495842161
H       -3.4558135589   -1.0714220375   -1.3961152258
H       -3.4046847583   -1.6703483545    0.2646980480
O       -2.6443354804    1.2914358109    0.5657910597
H        1.2410610291   -0.0822606514   -1.6416069896
C        1.7615165796   -1.0570597867    0.2264962562
O        2.5325418014   -1.8782785506   -0.3742441254
O        1.4746246569   -1.1272180454    1.4709097898
O        2.8278048677    2.2225073324   -0.2167253243
H        2.9463204481    2.1925854713    0.7474417490
$end

$rem
jobtype               freq
method                b3lyp
basis                 6-31g*
symmetry              off
sym_ignore            true
incdft                false
incfock               0
!scf_algorithm        diis_gdm
scf_convergence       8
thresh                14
!purecart             112
max_scf_cycles        1000
geom_opt_max_cycles   500
geom_opt_dmax         100
geom_opt_tol_gradient 10
solvent_method        pcm
ideriv                1
rpath_tol_displacement 1000
rpath_max_cycles      100
rpath_direction       1
!scf_guess            read
scf_guess             read
$end

$pcm
theory              cosmo
method              iswig
Radii               bondi
vdwScale            1.20
hpoints             110
heavypoints         110
$end

$solvent
dielectric 78.400000
$end

--------------------------------------------------------------

   17    -571.6723411811      9.21E-09 Convergence criterion met
 Total energy in the final basis set = -571.67234118
   15    -571.6723401121      6.40E-09 Convergence criterion met
 Total energy in the final basis set = -571.67234011
   15    -571.6723401191      3.85E-09 Convergence criterion met
 Total energy in the final basis set = -571.67234012
   15    -571.6723397485      4.74E-09 Convergence criterion met
 Total energy in the final basis set = -571.67233975
   15    -571.6723398288      3.76E-09 Convergence criterion met
 Total energy in the final basis set = -571.67233983
   15    -571.6723404819      4.13E-09 Convergence criterion met
 Total energy in the final basis set = -571.67234048
   15    -571.6723405061      4.77E-09 Convergence criterion met
 Total energy in the final basis set = -571.67234051
   15    -571.6723405627      5.27E-09 Convergence criterion met
 Total energy in the final basis set = -571.67234031
   15    -571.6723402409      7.05E-09 Convergence criterion met
 Total energy in the final basis set = -571.67234024
   16    -571.6723411096      6.98E-09 Convergence criterion met
 Total energy in the final basis set = -571.67234111
   17    -571.6723411958      1.21E-09 Convergence criterion met
 Total energy in the final basis set = -571.67234120
   16    -571.6723412052      9.95E-09 Convergence criterion met
 Total energy in the final basis set = -571.67234121
   16    -571.6723411005      3.18E-09 Convergence criterion met
 Total energy in the final basis set = -571.67234110
   16    -571.6723403542      3.06E-09 Convergence criterion met
 Total energy in the final basis set = -571.67234035
   15    -571.6723402761      5.12E-09 Convergence criterion met
 Total energy in the final basis set = -571.67234028

                    Orbital Energies (a.u.)
 --------------------------------------------------------------

 Alpha MOs
 -- Occupied --
-19.158 -19.116 -19.024 -19.020 -19.018 -10.298 -10.205 -10.200
-10.178 -10.092  -1.068  -0.983  -0.946  -0.858  -0.856  -0.745
 -0.701  -0.588  -0.530  -0.469  -0.464  -0.449  -0.431  -0.404
 -0.396  -0.379  -0.364  -0.362  -0.337  -0.333  -0.322  -0.302
 -0.288  -0.277  -0.256  -0.196  -0.186  -0.180  -0.165  -0.138

          Ground-State Mulliken Net Atomic Charges

     Atom                 Charge (a.u.)
  ----------------------------------------
      1 C                     0.606291
      2 C                    -0.023580
      3 C                    -0.477897
      4 H                     0.112333
      5 H                     0.117348
      6 H                     0.300323
      7 O                    -0.478624
      8 C                    -0.535533
      9 H                     0.172446
     10 H                     0.184312
     11 H                     0.190774
     12 O                    -0.558564
     13 H                     0.033863
     14 C                     0.502608
     15 O                    -0.745906
     16 O                    -0.735020
     17 O                    -0.980271
     18 H                     0.315097
  ----------------------------------------
  Sum of atomic charges =    -2.000000

                    Cartesian Multipole Moments
 -----------------------------------------------------------------
    Charge (ESU x 10^10)
                -9.6064
    Dipole Moment (Debye)
         X     -16.9599      Y       0.2620      Z      -1.6267
       Tot      17.0398
    Quadrupole Moments (Debye-Ang)
        XX    -112.1545     XY      10.4405     YY     -94.9300
        XZ       7.1507     YZ       4.8908     ZZ     -69.9279

             Standard Nuclear Orientation (Angstroms)
    I     Atom           X                Y                Z
 ----------------------------------------------------------------
    1      C      -2.4342025585     0.2284444545    -0.0067350295
    2      C      -0.0437093700     0.7012369894    -0.0993299956
    3      C       1.2319802862     0.1114135175    -0.5586662522
    4      H      -0.2910372667     1.6522727181    -0.5834539751
    5      H      -0.0464520052     0.8374068760     0.9845096004
    6      H       2.1166857935     1.2033287645    -0.3791164975
    7      O      -1.2357407245    -0.1980134515    -0.3916006888
    8      C      -3.5249366100    -0.7685564487    -0.3466831832
    9      H      -4.5046691301    -0.3293966084    -0.1495842161
   10      H      -3.4558135589    -1.0714220375    -1.3961152258
   11      H      -3.4046847583    -1.6703483545     0.2646980480
   12      O      -2.6443354804     1.2914358109     0.5657910597
   13      H       1.2410610291    -0.0822606514    -1.6416069896
   14      C       1.7615165796    -1.0570597867     0.2264962562
   15      O       2.5325418014    -1.8782785506    -0.3742441254
   16      O       1.4746246569    -1.1272180454     1.4709097898
   17      O       2.8278048677     2.2225073324    -0.2167253243
   18      H       2.9463204481     2.1925854713     0.7474417490
 ----------------------------------------------------------------

 Frequency:     -1188.44                  40.27                  44.08
 Force Cnst:      0.9130                 0.0089                 0.0043
 Red. Mass:       1.0971                 9.3499                 3.7315
 IR Intens:     6735.805                  0.569                  6.858
 Frequency:        58.23                  71.21                  82.09
 Force Cnst:      0.0121                 0.0106                 0.0109
 Red. Mass:       6.0651                 3.5612                 2.7496
 IR Intens:        5.804                  9.431                  6.143
 Frequency:        86.50                 151.43                 170.61
 Force Cnst:      0.0085                 0.0193                 0.0461
 Red. Mass:       1.9295                 1.4321                 2.6903
 IR Intens:        7.868                103.610                 24.617
 Frequency:       199.00                 275.22                 309.03
 Force Cnst:      0.1010                 0.1404                 0.2420
 Red. Mass:       4.3283                 3.1455                 4.3017
 IR Intens:        6.412                  2.661                 16.440
 Frequency:       423.62                 509.37                 544.78
 Force Cnst:      0.3803                 0.3118                 0.8020
 Red. Mass:       3.5973                 2.0399                 4.5867
 IR Intens:       22.549                 31.829                 69.867
 Frequency:       587.09                 609.40                 621.27
 Force Cnst:      0.4517                 0.5711                 0.7774
 Red. Mass:       2.2243                 2.6104                 3.4187
 IR Intens:       10.160                 11.351                 14.687
 Frequency:       667.08                 778.53                 809.47
 Force Cnst:      0.8304                 1.4109                 0.9835
 Red. Mass:       3.1671                 3.9510                 2.5477
 IR Intens:       18.830                 62.054                125.450
 Frequency:       877.96                 908.87                 963.02
 Force Cnst:      1.7102                 1.3517                 2.9574
 Red. Mass:       3.7657                 2.7774                 5.4124
 IR Intens:       26.259                 59.847                 16.564
 Frequency:      1022.11                1033.59                1069.31
 Force Cnst:      1.1449                 1.0729                 1.2040
 Red. Mass:       1.8600                 1.7045                 1.7872
 IR Intens:       98.064                 28.579                 14.616
 Frequency:      1138.39                1233.53                1280.95
 Force Cnst:      1.7555                 1.0289                 2.4100
 Red. Mass:       2.2991                 1.1477                 2.4929
 IR Intens:       81.285                 15.047                622.955
 Frequency:      1310.49                1347.69                1398.03
 Force Cnst:      1.1626                 1.9898                 1.6143
 Red. Mass:       1.1490                 1.8594                 1.4018
 IR Intens:       24.630                104.389                  4.094
 Frequency:      1420.21                1435.08                1482.51
 Force Cnst:      1.9845                 3.5237                 1.3726
 Red. Mass:       1.6699                 2.9040                 1.0600
 IR Intens:       85.985                321.270                 12.734
 Frequency:      1485.37                1491.69                1597.85
 Force Cnst:      1.4995                 1.3767                14.2204
 Red. Mass:       1.1535                 1.0501                 9.4534
 IR Intens:       52.113                  7.746                691.966
 Frequency:      1664.23                1750.16                3014.85
 Force Cnst:      1.7206                18.0789                 5.7967
 Red. Mass:       1.0544                10.0177                 1.0824
 IR Intens:       28.450                473.424                149.992
 Frequency:      3060.25                3066.07                3128.79
 Force Cnst:      5.8634                 5.7437                 6.3588
 Red. Mass:       1.0626                 1.0370                 1.1025
 IR Intens:       85.948                  4.418                 65.049
 Frequency:      3132.08                3168.17                3705.54
 Force Cnst:      6.3597                 6.5323                 8.6256
 Red. Mass:       1.1003                 1.1046                 1.0662
 IR Intens:        9.225                 22.852                 10.689

 STANDARD THERMODYNAMIC QUANTITIES AT   298.15 K  AND     1.00 ATM

   This Molecule has  1 Imaginary Frequencies
   Zero point vibrational energy:       78.948 kcal/mol

   Atom    1 Element C  Has Mass   12.00000
   Atom    2 Element C  Has Mass   12.00000
   Atom    3 Element C  Has Mass   12.00000
   Atom    4 Element H  Has Mass    1.00783
   Atom    5 Element H  Has Mass    1.00783
   Atom    6 Element H  Has Mass    1.00783
   Atom    7 Element O  Has Mass   15.99491
   Atom    8 Element C  Has Mass   12.00000
   Atom    9 Element H  Has Mass    1.00783
   Atom   10 Element H  Has Mass    1.00783
   Atom   11 Element H  Has Mass    1.00783
   Atom   12 Element O  Has Mass   15.99491
   Atom   13 Element H  Has Mass    1.00783
   Atom   14 Element C  Has Mass   12.00000
   Atom   15 Element O  Has Mass   15.99491
   Atom   16 Element O  Has Mass   15.99491
   Atom   17 Element O  Has Mass   15.99491
   Atom   18 Element H  Has Mass    1.00783
   Molecular Mass:   148.037190 amu
   Principal axes and moments of inertia in amu*Bohr^2:
                             1           2           3
    Eigenvalues --     1000.06874  2838.78206  3430.72019
          X               0.99834     0.05647    -0.01090
          Y              -0.05584     0.99710     0.05180
          Z               0.01379    -0.05111     0.99860
   Rotational Symmetry Number is   1
   The Molecule is an Asymmetric Top
   Translational Enthalpy:        0.889 kcal/mol
   Rotational Enthalpy:           0.889 kcal/mol
   Vibrational Enthalpy:         84.802 kcal/mol
   gas constant (RT):             0.592 kcal/mol
   Translational Entropy:        40.887  cal/mol.K
   Rotational Entropy:           30.655  cal/mol.K
   Vibrational Entropy:          41.752  cal/mol.K

   Total Enthalpy:               87.172 kcal/mol
   Total Entropy:               113.294  cal/mol.K

 Total job time:  1786.32s(wall), 6733.81s(cpu)
        *  Thank you very much for using Q-Chem.  Have a nice day.  *
