 Q-Chem 5.0, Q-Chem, Inc., Pleasanton, CA (2017)
 Q-Chem 5.0.2 for Intel X86 EM64T Linux

User input:
--------------------------------------------------------------
$molecule
-2 1
C       -1.8310214522   -0.1958348186   -0.7486908915
C       -0.9103285446    0.9847723850   -0.4513953136
H       -1.7243565447   -0.9776491887    0.0068528374
H       -2.8716328972    0.1450207973   -0.7520132615
H       -1.5927420006   -0.6147295505   -1.7292096772
C        0.5744653544    0.6238115441   -0.5020709115
C        0.9942533886   -0.4383826138    0.5126724987
H        0.8086734225    0.2821889328   -1.5145661707
H        1.1266033858    1.5483869576   -0.3220294983
H        2.0738546566   -0.3479303925    0.6900814270
H        0.5005160546   -0.2593155339    1.4712443461
O       -1.0848044670    1.9839203969   -1.4673172671
O       -1.3363003831    1.4551949788    0.7968854487
O       -0.5111312933    2.5386292614    1.3064790508
H       -2.0111853376    2.2553832625   -1.4359521381
C        0.7707016694   -1.9029593080    0.0979740485
O        0.3858010661   -2.7003222634    0.9965768585
O        1.0286032942   -2.2214150122   -1.0919704735
$end

$rem
jobtype               freq
method                wb97x-v
basis                 def2-tzvpd
symmetry              off
sym_ignore            true
incdft                false
incfock               0
!scf_algorithm        diis_gdm
scf_convergence       8
thresh                14
!purecart             112
max_scf_cycles        1000
geom_opt_max_cycles   500
geom_opt_dmax         100
geom_opt_tol_gradient 10
solvent_method        pcm
ideriv                1
rpath_tol_displacement 1000
rpath_max_cycles      100
rpath_direction       1
!scf_guess            read
scf_guess             read
$end

$pcm
theory              cosmo
method              iswig
Radii               bondi
vdwScale            1.20
hpoints             110
heavypoints         110
$end

$solvent
dielectric 78.400000
$end

--------------------------------------------------------------

   17    -571.7214748575      3.99E-09 Convergence criterion met
 Total energy in the final basis set = -571.72147486
   14    -571.7214739054      8.42E-09 Convergence criterion met
 Total energy in the final basis set = -571.72147391
   14    -571.7214738778      7.26E-09 Convergence criterion met
 Total energy in the final basis set = -571.72147388
   14    -571.7214738841      8.86E-09 Convergence criterion met
 Total energy in the final basis set = -571.72147388
   14    -571.7214739235      9.33E-09 Convergence criterion met
 Total energy in the final basis set = -571.72147392
   14    -571.7214737919      8.13E-09 Convergence criterion met
 Total energy in the final basis set = -571.72147379
   14    -571.7214738084      7.68E-09 Convergence criterion met
 Total energy in the final basis set = -571.72147381
   14    -571.7214738071      9.45E-09 Convergence criterion met
 Total energy in the final basis set = -571.72147423
   15    -571.7214741998      2.60E-09 Convergence criterion met
 Total energy in the final basis set = -571.72147420
   15    -571.7214747492      2.88E-09 Convergence criterion met
 Total energy in the final basis set = -571.72147475
   14    -571.7214747571      7.66E-09 Convergence criterion met
 Total energy in the final basis set = -571.72147476
   15    -571.7214746254      7.04E-09 Convergence criterion met
 Total energy in the final basis set = -571.72147463
   14    -571.7214746160      7.53E-09 Convergence criterion met
 Total energy in the final basis set = -571.72147462
   14    -571.7214738469      9.84E-09 Convergence criterion met
 Total energy in the final basis set = -571.72147385
   14    -571.7214738589      7.31E-09 Convergence criterion met
 Total energy in the final basis set = -571.72147386

                    Orbital Energies (a.u.)
 --------------------------------------------------------------

 Alpha MOs
 -- Occupied --
-19.208 -19.199 -19.137 -19.137 -19.132 -10.345 -10.338 -10.244
-10.243 -10.241  -1.180  -1.140  -1.115  -1.046  -0.928  -0.882
 -0.824  -0.772  -0.665  -0.605  -0.593  -0.573  -0.563  -0.533
 -0.516  -0.511  -0.507  -0.484  -0.466  -0.455  -0.443  -0.433
 -0.416  -0.404  -0.377  -0.346  -0.333  -0.327  -0.297  -0.270

          Ground-State Mulliken Net Atomic Charges

     Atom                 Charge (a.u.)
  ----------------------------------------
      1 C                    -1.161744
      2 C                     0.634869
      3 H                     0.213129
      4 H                     0.310155
      5 H                     0.238859
      6 C                    -0.212735
      7 C                    -0.163164
      8 H                     0.212545
      9 H                     0.157848
     10 H                     0.187892
     11 H                     0.115698
     12 O                    -0.530174
     13 O                    -0.251274
     14 O                    -0.856786
     15 H                     0.387705
     16 C                     0.153088
     17 O                    -0.722488
     18 O                    -0.713422
  ----------------------------------------
  Sum of atomic charges =    -2.000000

                    Cartesian Multipole Moments
 -----------------------------------------------------------------
    Charge (ESU x 10^10)
                -9.6064
    Dipole Moment (Debye)
         X      -0.8061      Y       1.0109      Z      -4.9584
       Tot       5.1242
    Quadrupole Moments (Debye-Ang)
        XX     -65.5763     XY      13.8473     YY    -133.9863
        XZ       9.3795     YZ     -12.3070     ZZ     -85.5898

             Standard Nuclear Orientation (Angstroms)
    I     Atom           X                Y                Z
 ----------------------------------------------------------------
    1      C      -1.8310214522    -0.1958348186    -0.7486908915
    2      C      -0.9103285446     0.9847723850    -0.4513953136
    3      H      -1.7243565447    -0.9776491887     0.0068528374
    4      H      -2.8716328972     0.1450207973    -0.7520132615
    5      H      -1.5927420006    -0.6147295505    -1.7292096772
    6      C       0.5744653544     0.6238115441    -0.5020709115
    7      C       0.9942533886    -0.4383826138     0.5126724987
    8      H       0.8086734225     0.2821889328    -1.5145661707
    9      H       1.1266033858     1.5483869576    -0.3220294983
   10      H       2.0738546566    -0.3479303925     0.6900814270
   11      H       0.5005160546    -0.2593155339     1.4712443461
   12      O      -1.0848044670     1.9839203969    -1.4673172671
   13      O      -1.3363003831     1.4551949788     0.7968854487
   14      O      -0.5111312933     2.5386292614     1.3064790508
   15      H      -2.0111853376     2.2553832625    -1.4359521381
   16      C       0.7707016694    -1.9029593080     0.0979740485
   17      O       0.3858010661    -2.7003222634     0.9965768585
   18      O       1.0286032942    -2.2214150122    -1.0919704735
 ----------------------------------------------------------------

 Frequency:        63.37                  65.16                 105.41
 Force Cnst:      0.0142                 0.0228                 0.0365
 Red. Mass:       5.9817                 9.1038                 5.5768
 IR Intens:       22.618                  3.853                 39.264
 Frequency:       158.90                 222.69                 243.55
 Force Cnst:      0.0967                 0.1038                 0.0513
 Red. Mass:       6.5028                 3.5524                 1.4673
 IR Intens:        5.078                  9.247                 19.030
 Frequency:       248.03                 258.14                 314.08
 Force Cnst:      0.0795                 0.0432                 0.1821
 Red. Mass:       2.1927                 1.1012                 3.1326
 IR Intens:       23.688                147.529                  5.068
 Frequency:       369.61                 389.52                 421.66
 Force Cnst:      0.1792                 0.4972                 0.3660
 Red. Mass:       2.2261                 5.5616                 3.4941
 IR Intens:       24.030                  7.727                  2.152
 Frequency:       489.90                 572.01                 577.83
 Force Cnst:      0.4138                 0.8049                 0.8837
 Red. Mass:       2.9265                 4.1751                 4.4921
 IR Intens:       39.446                  7.424                 49.418
 Frequency:       605.56                 700.09                 766.81
 Force Cnst:      0.8342                 0.9154                 1.2789
 Red. Mass:       3.8613                 3.1699                 3.6917
 IR Intens:       34.285                  7.220                  5.299
 Frequency:       863.14                 889.55                 921.10
 Force Cnst:      1.6299                 1.3956                 1.1980
 Red. Mass:       3.7131                 2.9934                 2.3966
 IR Intens:       22.815                 68.756                 39.850
 Frequency:       966.36                 978.16                1016.49
 Force Cnst:      1.6512                 1.2450                 1.9959
 Red. Mass:       3.0010                 2.2085                 3.2786
 IR Intens:       76.611                 11.815                 16.104
 Frequency:      1073.67                1113.75                1134.00
 Force Cnst:      1.3737                 1.2972                 1.2434
 Red. Mass:       2.0225                 1.7750                 1.6411
 IR Intens:       34.652                213.945                128.164
 Frequency:      1165.25                1222.36                1284.48
 Force Cnst:      1.6437                 1.2373                 1.6177
 Red. Mass:       2.0546                 1.4055                 1.6641
 IR Intens:       15.607                 23.082                 58.036
 Frequency:      1339.89                1355.86                1400.32
 Force Cnst:      1.5803                 1.7465                 1.7889
 Red. Mass:       1.4940                 1.6124                 1.5484
 IR Intens:       11.688                101.119                 11.137
 Frequency:      1411.19                1436.95                1453.28
 Force Cnst:      2.1774                 4.1185                 1.3609
 Red. Mass:       1.8557                 3.3854                 1.0937
 IR Intens:       37.502                292.774                 20.924
 Frequency:      1460.84                1473.24                1485.54
 Force Cnst:      1.5280                 1.4428                 1.4207
 Red. Mass:       1.2153                 1.1282                 1.0926
 IR Intens:       62.034                 38.764                  2.224
 Frequency:      1581.92                3050.51                3057.58
 Force Cnst:     14.0977                 5.8533                 5.7135
 Red. Mass:       9.5615                 1.0676                 1.0373
 IR Intens:     1226.697                 40.974                 24.682
 Frequency:      3088.98                3118.38                3132.54
 Force Cnst:      5.9742                 6.2704                 6.3639
 Red. Mass:       1.0627                 1.0944                 1.1007
 IR Intens:       28.811                 43.246                 38.694
 Frequency:      3140.94                3151.35                3815.20
 Force Cnst:      6.4001                 6.4569                 9.1396
 Red. Mass:       1.1011                 1.1035                 1.0657
 IR Intens:       28.797                 32.083                 52.263

 STANDARD THERMODYNAMIC QUANTITIES AT   298.15 K  AND     1.00 ATM

   This Molecule has  0 Imaginary Frequencies
   Zero point vibrational energy:       84.567 kcal/mol

   Atom    1 Element C  Has Mass   12.00000
   Atom    2 Element C  Has Mass   12.00000
   Atom    3 Element H  Has Mass    1.00783
   Atom    4 Element H  Has Mass    1.00783
   Atom    5 Element H  Has Mass    1.00783
   Atom    6 Element C  Has Mass   12.00000
   Atom    7 Element C  Has Mass   12.00000
   Atom    8 Element H  Has Mass    1.00783
   Atom    9 Element H  Has Mass    1.00783
   Atom   10 Element H  Has Mass    1.00783
   Atom   11 Element H  Has Mass    1.00783
   Atom   12 Element O  Has Mass   15.99491
   Atom   13 Element O  Has Mass   15.99491
   Atom   14 Element O  Has Mass   15.99491
   Atom   15 Element H  Has Mass    1.00783
   Atom   16 Element C  Has Mass   12.00000
   Atom   17 Element O  Has Mass   15.99491
   Atom   18 Element O  Has Mass   15.99491
   Molecular Mass:   148.037190 amu
   Principal axes and moments of inertia in amu*Bohr^2:
                             1           2           3
    Eigenvalues --      794.53074  2218.80366  2418.73671
          X              -0.39906     0.31344     0.86169
          Y               0.91691     0.14231     0.37287
          Z              -0.00576     0.93888    -0.34419
   Rotational Symmetry Number is   1
   The Molecule is an Asymmetric Top
   Translational Enthalpy:        0.889 kcal/mol
   Rotational Enthalpy:           0.889 kcal/mol
   Vibrational Enthalpy:         89.404 kcal/mol
   gas constant (RT):             0.592 kcal/mol
   Translational Entropy:        40.887  cal/mol.K
   Rotational Entropy:           29.834  cal/mol.K
   Vibrational Entropy:          29.844  cal/mol.K

   Total Enthalpy:               91.773 kcal/mol
   Total Entropy:               100.566  cal/mol.K

 Total job time:  39239.32s(wall), 554121.53s(cpu)
        *  Thank you very much for using Q-Chem.  Have a nice day.  *
