 Q-Chem 5.0, Q-Chem, Inc., Pleasanton, CA (2017)
 Q-Chem 5.0.2 for Intel X86 EM64T Linux

User input:
--------------------------------------------------------------
$molecule
-2 1
C       -0.5845941601   -1.6486433058    0.6594130020
C       -1.6624606615   -2.7059261262    0.3700651765
O       -1.4255645855   -3.8665900865    0.7935396443
O       -2.6899218043   -2.3431943697   -0.2563922124
C       -0.9109358886   -0.2822024251    0.0991508736
H        0.3644313196   -2.0060330063    0.2454354398
H       -0.4521098435   -1.5881785973    1.7451285553
O        0.1851947613    0.5965049176    0.4526219683
H       -1.8333453878    0.1215138724    0.5217369055
H       -1.0056819740   -0.3021463801   -0.9887124383
C        0.1199774383    1.8483885440   -0.0051956974
C        1.3327571985    2.6470689398    0.3781545492
H        1.5450378641    2.5248095846    1.4422462086
H        1.1748382326    3.6977794129    0.1395425708
H        2.1922274627    2.2691033637   -0.1832155060
O       -0.8111486951    2.2677500321   -0.6613926514
O        1.3694191781    0.5091884336   -3.0030640687
H        0.5733733314    0.9061060485   -2.6341842753
$end

$rem
jobtype               freq
method                wb97x-v
basis                 def2-tzvpd
symmetry              off
sym_ignore            true
incdft                false
incfock               0
!scf_algorithm        diis_gdm
scf_convergence       8
thresh                14
!purecart             112
max_scf_cycles        1000
geom_opt_max_cycles   500
geom_opt_dmax         100
geom_opt_tol_gradient 10
solvent_method        pcm
ideriv                1
rpath_tol_displacement 1000
rpath_max_cycles      100
rpath_direction       1
!scf_guess            read
scf_guess             read
$end

$pcm
theory              cosmo
method              iswig
Radii               bondi
vdwScale            1.20
hpoints             110
heavypoints         110
$end

$solvent
dielectric 78.400000
$end

--------------------------------------------------------------

   17    -571.8140661041      6.63E-09 Convergence criterion met
 Total energy in the final basis set = -571.81406610
   16    -571.8140651365      4.72E-09 Convergence criterion met
 Total energy in the final basis set = -571.81406514
   14    -571.8140651537      8.63E-09 Convergence criterion met
 Total energy in the final basis set = -571.81406515
   14    -571.8140651813      5.91E-09 Convergence criterion met
 Total energy in the final basis set = -571.81406518
   14    -571.8140652017      9.28E-09 Convergence criterion met
 Total energy in the final basis set = -571.81406520
   14    -571.8140650971      6.85E-09 Convergence criterion met
 Total energy in the final basis set = -571.81406510
   14    -571.8140650935      9.81E-09 Convergence criterion met
 Total energy in the final basis set = -571.81406509
   14    -571.8140650217      5.67E-09 Convergence criterion met
 Total energy in the final basis set = -571.81406597
   17    -571.8140659528      1.31E-09 Convergence criterion met
 Total energy in the final basis set = -571.81406595
   16    -571.8140654564      7.31E-09 Convergence criterion met
 Total energy in the final basis set = -571.81406546
   16    -571.8140654554      4.29E-09 Convergence criterion met
 Total energy in the final basis set = -571.81406546
   17    -571.8140659492      1.85E-09 Convergence criterion met
 Total energy in the final basis set = -571.81406595
   17    -571.8140659341      1.24E-09 Convergence criterion met
 Total energy in the final basis set = -571.81406593
   17    -571.8140659577      1.43E-09 Convergence criterion met
 Total energy in the final basis set = -571.81406596
   17    -571.8140659619      1.33E-09 Convergence criterion met
 Total energy in the final basis set = -571.81406596

                    Orbital Energies (a.u.)
 --------------------------------------------------------------

 Alpha MOs
 -- Occupied --
-19.255 -19.200 -19.144 -19.141 -19.092 -10.401 -10.346 -10.314
-10.268 -10.256  -1.239  -1.148  -1.145  -1.054  -0.965  -0.914
 -0.865  -0.769  -0.684  -0.618  -0.615  -0.598  -0.585  -0.562
 -0.533  -0.524  -0.514  -0.509  -0.485  -0.476  -0.450  -0.447
 -0.443  -0.408  -0.388  -0.350  -0.340  -0.335  -0.312  -0.312

          Ground-State Mulliken Net Atomic Charges

     Atom                 Charge (a.u.)
  ----------------------------------------
      1 C                    -0.110164
      2 C                     0.049386
      3 O                    -0.703791
      4 O                    -0.689966
      5 C                    -0.186018
      6 H                     0.248134
      7 H                     0.245443
      8 O                    -0.198069
      9 H                     0.234327
     10 H                     0.219656
     11 C                     0.483455
     12 C                    -0.783612
     13 H                     0.263228
     14 H                     0.240879
     15 H                     0.208706
     16 O                    -0.520358
     17 O                    -1.116695
     18 H                     0.115459
  ----------------------------------------
  Sum of atomic charges =    -2.000000

                    Cartesian Multipole Moments
 -----------------------------------------------------------------
    Charge (ESU x 10^10)
                -9.6064
    Dipole Moment (Debye)
         X       4.8846      Y      12.3121      Z      15.3566
       Tot      20.2798
    Quadrupole Moments (Debye-Ang)
        XX    -102.0061     XY     -28.8581     YY    -125.4103
        XZ      20.5406     YZ      17.6033     ZZ    -113.4778

             Standard Nuclear Orientation (Angstroms)
    I     Atom           X                Y                Z
 ----------------------------------------------------------------
    1      C      -0.5845941601    -1.6486433058     0.6594130020
    2      C      -1.6624606615    -2.7059261262     0.3700651765
    3      O      -1.4255645855    -3.8665900865     0.7935396443
    4      O      -2.6899218043    -2.3431943697    -0.2563922124
    5      C      -0.9109358886    -0.2822024251     0.0991508736
    6      H       0.3644313196    -2.0060330063     0.2454354398
    7      H      -0.4521098435    -1.5881785973     1.7451285553
    8      O       0.1851947613     0.5965049176     0.4526219683
    9      H      -1.8333453878     0.1215138724     0.5217369055
   10      H      -1.0056819740    -0.3021463801    -0.9887124383
   11      C       0.1199774383     1.8483885440    -0.0051956974
   12      C       1.3327571985     2.6470689398     0.3781545492
   13      H       1.5450378641     2.5248095846     1.4422462086
   14      H       1.1748382326     3.6977794129     0.1395425708
   15      H       2.1922274627     2.2691033637    -0.1832155060
   16      O      -0.8111486951     2.2677500321    -0.6613926514
   17      O       1.3694191781     0.5091884336    -3.0030640687
   18      H       0.5733733314     0.9061060485    -2.6341842753
 ----------------------------------------------------------------

 Frequency:        28.66                  37.13                  51.34
 Force Cnst:      0.0052                 0.0085                 0.0065
 Red. Mass:      10.7601                10.5210                 4.2086
 IR Intens:       25.819                 15.937                 22.474
 Frequency:        57.17                  70.40                  86.37
 Force Cnst:      0.0022                 0.0116                 0.0218
 Red. Mass:       1.1173                 3.9789                 4.9540
 IR Intens:        0.911                  6.898                 49.840
 Frequency:       102.88                 106.49                 191.33
 Force Cnst:      0.0226                 0.0311                 0.0369
 Red. Mass:       3.6215                 4.6518                 1.7101
 IR Intens:       11.340                  7.909                 59.674
 Frequency:       211.45                 242.25                 255.22
 Force Cnst:      0.0379                 0.1724                 0.0398
 Red. Mass:       1.4380                 4.9850                 1.0373
 IR Intens:       82.311                 14.015                115.178
 Frequency:       289.61                 441.42                 512.19
 Force Cnst:      0.4461                 0.4324                 0.7982
 Red. Mass:       9.0276                 3.7662                 5.1639
 IR Intens:        1.154                  6.723                 40.962
 Frequency:       596.23                 615.73                 658.34
 Force Cnst:      0.4124                 0.5712                 1.1366
 Red. Mass:       1.9692                 2.5573                 4.4510
 IR Intens:        5.205                 11.384                  1.360
 Frequency:       693.76                 819.99                 911.44
 Force Cnst:      1.8394                 0.5719                 3.4476
 Red. Mass:       6.4863                 1.4435                 7.0440
 IR Intens:       53.857                 10.656                 22.289
 Frequency:       963.99                 992.25                1067.10
 Force Cnst:      1.9528                 1.4480                 1.2396
 Red. Mass:       3.5667                 2.4961                 1.8477
 IR Intens:       23.843                  9.118                 16.088
 Frequency:      1073.24                1085.39                1127.57
 Force Cnst:      2.0503                 1.3620                 2.0653
 Red. Mass:       3.0211                 1.9623                 2.7571
 IR Intens:      183.691                 12.202                  7.659
 Frequency:      1229.63                1284.89                1302.14
 Force Cnst:      1.0685                 1.7858                 2.2546
 Red. Mass:       1.1994                 1.8359                 2.2568
 IR Intens:        3.611                424.558                270.808
 Frequency:      1309.97                1396.31                1422.25
 Force Cnst:      1.1123                 1.5563                 2.4594
 Red. Mass:       1.1001                 1.3548                 2.0636
 IR Intens:        7.952                 72.931                258.997
 Frequency:      1434.63                1452.65                1461.56
 Force Cnst:      3.8660                 1.3187                 1.3459
 Red. Mass:       3.1881                 1.0606                 1.0694
 IR Intens:      199.776                 18.600                 22.283
 Frequency:      1464.07                1497.24                1596.66
 Force Cnst:      1.6255                 1.4534                15.9195
 Red. Mass:       1.2871                 1.1004                10.5988
 IR Intens:        8.050                 20.653               1270.182
 Frequency:      1763.19                3067.51                3077.41
 Force Cnst:     20.2586                 5.8840                 5.7876
 Red. Mass:      11.0602                 1.0613                 1.0372
 IR Intens:      594.575                 22.542                  0.549
 Frequency:      3094.57                3108.49                3150.54
 Force Cnst:      5.9657                 6.2784                 6.4913
 Red. Mass:       1.0573                 1.1028                 1.1100
 IR Intens:       29.378                 10.506                 41.258
 Frequency:      3152.17                3187.62                3845.70
 Force Cnst:      6.4404                 6.6166                 9.2957
 Red. Mass:       1.1001                 1.1052                 1.0668
 IR Intens:        2.821                  8.916                  3.320

 STANDARD THERMODYNAMIC QUANTITIES AT   298.15 K  AND     1.00 ATM

   This Molecule has  0 Imaginary Frequencies
   Zero point vibrational energy:       82.326 kcal/mol

   Atom    1 Element C  Has Mass   12.00000
   Atom    2 Element C  Has Mass   12.00000
   Atom    3 Element O  Has Mass   15.99491
   Atom    4 Element O  Has Mass   15.99491
   Atom    5 Element C  Has Mass   12.00000
   Atom    6 Element H  Has Mass    1.00783
   Atom    7 Element H  Has Mass    1.00783
   Atom    8 Element O  Has Mass   15.99491
   Atom    9 Element H  Has Mass    1.00783
   Atom   10 Element H  Has Mass    1.00783
   Atom   11 Element C  Has Mass   12.00000
   Atom   12 Element C  Has Mass   12.00000
   Atom   13 Element H  Has Mass    1.00783
   Atom   14 Element H  Has Mass    1.00783
   Atom   15 Element H  Has Mass    1.00783
   Atom   16 Element O  Has Mass   15.99491
   Atom   17 Element O  Has Mass   15.99491
   Atom   18 Element H  Has Mass    1.00783
   Molecular Mass:   148.037190 amu
   Principal axes and moments of inertia in amu*Bohr^2:
                             1           2           3
    Eigenvalues --      931.37048  3349.51653  3630.02700
          X               0.43062    -0.26773     0.86191
          Y               0.88153     0.32957    -0.33805
          Z              -0.19355     0.90537     0.37794
   Rotational Symmetry Number is   1
   The Molecule is an Asymmetric Top
   Translational Enthalpy:        0.889 kcal/mol
   Rotational Enthalpy:           0.889 kcal/mol
   Vibrational Enthalpy:         88.839 kcal/mol
   gas constant (RT):             0.592 kcal/mol
   Translational Entropy:        40.887  cal/mol.K
   Rotational Entropy:           30.805  cal/mol.K
   Vibrational Entropy:          48.490  cal/mol.K

   Total Enthalpy:               91.209 kcal/mol
   Total Entropy:               120.182  cal/mol.K

 Total job time:  34869.73s(wall), 479390.42s(cpu)
        *  Thank you very much for using Q-Chem.  Have a nice day.  *
