 Q-Chem 5.0, Q-Chem, Inc., Pleasanton, CA (2017)
 Q-Chem 5.0.2 for Intel X86 EM64T Linux

User input:
--------------------------------------------------------------
$molecule
-2 1
C       -0.3906283094   -1.8927905955    0.6214243549
C       -1.4148732130   -2.9856519380    0.2809366652
O       -1.1905336331   -4.1271532604    0.7675636889
O       -2.3989423735   -2.6813283251   -0.4407648720
C       -0.6263622393   -0.5537355214   -0.0533520194
H        0.6050988107   -2.2713121508    0.3632706533
H       -0.3957971816   -1.7647850507    1.7109633085
O        0.3882184441    0.3393687127    0.3710363162
H       -1.6166965259   -0.1647288243    0.2086875255
H       -0.5985150038   -0.6729633633   -1.1446191651
C        0.4110348543    1.6184592665   -0.3431447319
C        1.5171860332    2.4015965277    0.3717647281
H        1.2235437697    2.5795350813    1.4099368497
H        1.6508564642    3.3636284614   -0.1297561270
H        2.4670302688    1.8587474895    0.3600431589
O       -0.7551267970    2.2064199265   -0.4263152044
O        0.9406358012    1.3083037193   -1.6784979470
H        0.1742804412    1.4328026688   -2.2513115232
$end

$rem
jobtype               freq
method                wb97x-v
basis                 def2-tzvpd
symmetry              off
sym_ignore            true
incdft                false
incfock               0
!scf_algorithm        diis_gdm
scf_convergence       8
thresh                14
!purecart             112
max_scf_cycles        1000
geom_opt_max_cycles   500
geom_opt_dmax         100
geom_opt_tol_gradient 10
solvent_method        pcm
ideriv                1
rpath_tol_displacement 1000
rpath_max_cycles      100
rpath_direction       1
!scf_guess            read
scf_guess             read
$end

$pcm
theory              cosmo
method              iswig
Radii               bondi
vdwScale            1.20
hpoints             110
heavypoints         110
$end

$solvent
dielectric 78.400000
$end

--------------------------------------------------------------

   17    -571.8194680154      3.07E-09 Convergence criterion met
 Total energy in the final basis set = -571.81946802
   14    -571.8194670068      4.85E-09 Convergence criterion met
 Total energy in the final basis set = -571.81946701
   13    -571.8194671014      9.25E-09 Convergence criterion met
 Total energy in the final basis set = -571.81946710
   13    -571.8194670786      9.76E-09 Convergence criterion met
 Total energy in the final basis set = -571.81946708
   13    -571.8194671326      9.19E-09 Convergence criterion met
 Total energy in the final basis set = -571.81946713
   14    -571.8194670050      5.12E-09 Convergence criterion met
 Total energy in the final basis set = -571.81946701
   13    -571.8194670576      9.33E-09 Convergence criterion met
 Total energy in the final basis set = -571.81946706
   13    -571.8194670062      9.92E-09 Convergence criterion met
 Total energy in the final basis set = -571.81946733
   14    -571.8194673423      5.20E-09 Convergence criterion met
 Total energy in the final basis set = -571.81946734
   14    -571.8194674223      8.25E-09 Convergence criterion met
 Total energy in the final basis set = -571.81946742
   14    -571.8194674103      8.29E-09 Convergence criterion met
 Total energy in the final basis set = -571.81946741
   16    -571.8194680101      2.41E-09 Convergence criterion met
 Total energy in the final basis set = -571.81946801
   16    -571.8194679743      5.42E-09 Convergence criterion met
 Total energy in the final basis set = -571.81946797
   16    -571.8194676056      5.75E-09 Convergence criterion met
 Total energy in the final basis set = -571.81946761
   15    -571.8194676158      1.38E-09 Convergence criterion met
 Total energy in the final basis set = -571.81946762

                    Orbital Energies (a.u.)
 --------------------------------------------------------------

 Alpha MOs
 -- Occupied --
-19.180 -19.179 -19.140 -19.137 -19.103 -10.366 -10.341 -10.283
-10.245 -10.232  -1.167  -1.143  -1.092  -1.048  -1.028  -0.875
 -0.830  -0.732  -0.664  -0.614  -0.584  -0.573  -0.545  -0.541
 -0.523  -0.514  -0.499  -0.489  -0.474  -0.460  -0.445  -0.436
 -0.407  -0.383  -0.353  -0.343  -0.337  -0.330  -0.314  -0.308

          Ground-State Mulliken Net Atomic Charges

     Atom                 Charge (a.u.)
  ----------------------------------------
      1 C                    -0.057718
      2 C                     0.040425
      3 O                    -0.711876
      4 O                    -0.692101
      5 C                    -0.215919
      6 H                     0.225747
      7 H                     0.227301
      8 O                    -0.294697
      9 H                     0.149411
     10 H                     0.163757
     11 C                     0.627624
     12 C                    -1.035814
     13 H                     0.218765
     14 H                     0.235425
     15 H                     0.215386
     16 O                    -0.877294
     17 O                    -0.565463
     18 H                     0.347040
  ----------------------------------------
  Sum of atomic charges =    -2.000000

                    Cartesian Multipole Moments
 -----------------------------------------------------------------
    Charge (ESU x 10^10)
                -9.6064
    Dipole Moment (Debye)
         X       9.7313      Y       8.8856      Z       1.0456
       Tot      13.2191
    Quadrupole Moments (Debye-Ang)
        XX     -93.2035     XY     -26.7031     YY    -152.5800
        XZ       0.2397     YZ       9.5384     ZZ     -68.9989

             Standard Nuclear Orientation (Angstroms)
    I     Atom           X                Y                Z
 ----------------------------------------------------------------
    1      C      -0.3906283094    -1.8927905955     0.6214243549
    2      C      -1.4148732130    -2.9856519380     0.2809366652
    3      O      -1.1905336331    -4.1271532604     0.7675636889
    4      O      -2.3989423735    -2.6813283251    -0.4407648720
    5      C      -0.6263622393    -0.5537355214    -0.0533520194
    6      H       0.6050988107    -2.2713121508     0.3632706533
    7      H      -0.3957971816    -1.7647850507     1.7109633085
    8      O       0.3882184441     0.3393687127     0.3710363162
    9      H      -1.6166965259    -0.1647288243     0.2086875255
   10      H      -0.5985150038    -0.6729633633    -1.1446191651
   11      C       0.4110348543     1.6184592665    -0.3431447319
   12      C       1.5171860332     2.4015965277     0.3717647281
   13      H       1.2235437697     2.5795350813     1.4099368497
   14      H       1.6508564642     3.3636284614    -0.1297561270
   15      H       2.4670302688     1.8587474895     0.3600431589
   16      O      -0.7551267970     2.2064199265    -0.4263152044
   17      O       0.9406358012     1.3083037193    -1.6784979470
   18      H       0.1742804412     1.4328026688    -2.2513115232
 ----------------------------------------------------------------

 Frequency:        38.03                  62.68                  75.65
 Force Cnst:      0.0093                 0.0131                 0.0068
 Red. Mass:      10.9629                 5.6545                 2.0238
 IR Intens:        1.602                  4.856                  2.337
 Frequency:       100.85                 170.67                 229.07
 Force Cnst:      0.0383                 0.0601                 0.0521
 Red. Mass:       6.3975                 3.5026                 1.6860
 IR Intens:        4.110                 31.166                 31.494
 Frequency:       240.12                 252.23                 265.90
 Force Cnst:      0.0485                 0.0518                 0.2973
 Red. Mass:       1.4272                 1.3814                 7.1377
 IR Intens:       29.243                 86.243                  0.667
 Frequency:       377.38                 395.61                 505.84
 Force Cnst:      0.2348                 0.4034                 0.7659
 Red. Mass:       2.7980                 4.3748                 5.0804
 IR Intens:       12.591                  8.503                 20.860
 Frequency:       524.54                 556.93                 597.01
 Force Cnst:      0.7567                 0.9492                 0.4187
 Red. Mass:       4.6679                 5.1941                 1.9939
 IR Intens:       17.370                  2.992                  9.505
 Frequency:       637.64                 685.71                 779.41
 Force Cnst:      1.0778                 1.5513                 1.9532
 Red. Mass:       4.4994                 5.5997                 5.4573
 IR Intens:       18.314                 41.067                218.990
 Frequency:       797.10                 820.31                 944.16
 Force Cnst:      1.6382                 0.5887                 2.2505
 Red. Mass:       4.3761                 1.4848                 4.2848
 IR Intens:      471.148                  5.042                  3.404
 Frequency:       963.12                1055.70                1093.00
 Force Cnst:      1.0475                 1.5349                 1.3639
 Red. Mass:       1.9167                 2.3375                 1.9377
 IR Intens:      114.249                296.294                 12.570
 Frequency:      1113.07                1116.38                1124.69
 Force Cnst:      2.0490                 2.3879                 1.6004
 Red. Mass:       2.8070                 3.2520                 2.1474
 IR Intens:      230.642                 25.162                202.849
 Frequency:      1162.18                1224.36                1285.59
 Force Cnst:      1.8720                 1.0677                 1.4051
 Red. Mass:       2.3523                 1.2088                 1.4429
 IR Intens:      167.754                  1.973                 23.125
 Frequency:      1300.00                1358.84                1403.78
 Force Cnst:      1.1342                 1.6523                 1.9369
 Red. Mass:       1.1391                 1.5188                 1.6682
 IR Intens:        9.950                168.161                 38.644
 Frequency:      1422.25                1435.82                1457.33
 Force Cnst:      2.9454                 5.2680                 1.5817
 Red. Mass:       2.4714                 4.3371                 1.2640
 IR Intens:      276.907                422.489                 33.380
 Frequency:      1465.37                1470.23                1515.20
 Force Cnst:      1.3405                 1.3432                 1.4837
 Red. Mass:       1.0595                 1.0547                 1.0968
 IR Intens:        4.570                  7.659                 13.200
 Frequency:      1583.10                3033.63                3052.22
 Force Cnst:     14.9670                 5.7423                 5.7320
 Red. Mass:      10.1360                 1.0590                 1.0443
 IR Intens:     1285.728                 80.734                 58.354
 Frequency:      3052.92                3071.02                3098.00
 Force Cnst:      5.7774                 6.1158                 6.2398
 Red. Mass:       1.0521                 1.1006                 1.1035
 IR Intens:       18.744                 33.835                 87.848
 Frequency:      3129.36                3137.13                3825.86
 Force Cnst:      6.3648                 6.3982                 9.1872
 Red. Mass:       1.1031                 1.1034                 1.0653
 IR Intens:       62.775                 54.418                 62.184

 STANDARD THERMODYNAMIC QUANTITIES AT   298.15 K  AND     1.00 ATM

   This Molecule has  0 Imaginary Frequencies
   Zero point vibrational energy:       84.355 kcal/mol

   Atom    1 Element C  Has Mass   12.00000
   Atom    2 Element C  Has Mass   12.00000
   Atom    3 Element O  Has Mass   15.99491
   Atom    4 Element O  Has Mass   15.99491
   Atom    5 Element C  Has Mass   12.00000
   Atom    6 Element H  Has Mass    1.00783
   Atom    7 Element H  Has Mass    1.00783
   Atom    8 Element O  Has Mass   15.99491
   Atom    9 Element H  Has Mass    1.00783
   Atom   10 Element H  Has Mass    1.00783
   Atom   11 Element C  Has Mass   12.00000
   Atom   12 Element C  Has Mass   12.00000
   Atom   13 Element H  Has Mass    1.00783
   Atom   14 Element H  Has Mass    1.00783
   Atom   15 Element H  Has Mass    1.00783
   Atom   16 Element O  Has Mass   15.99491
   Atom   17 Element O  Has Mass   15.99491
   Atom   18 Element H  Has Mass    1.00783
   Molecular Mass:   148.037190 amu
   Principal axes and moments of inertia in amu*Bohr^2:
                             1           2           3
    Eigenvalues --      520.53122  3357.62390  3524.75821
          X               0.38022     0.74623    -0.54642
          Y               0.91568    -0.22053     0.33600
          Z              -0.13023     0.62810     0.76716
   Rotational Symmetry Number is   1
   The Molecule is an Asymmetric Top
   Translational Enthalpy:        0.889 kcal/mol
   Rotational Enthalpy:           0.889 kcal/mol
   Vibrational Enthalpy:         89.373 kcal/mol
   gas constant (RT):             0.592 kcal/mol
   Translational Entropy:        40.887  cal/mol.K
   Rotational Entropy:           30.200  cal/mol.K
   Vibrational Entropy:          33.029  cal/mol.K

   Total Enthalpy:               91.743 kcal/mol
   Total Entropy:               104.116  cal/mol.K

 Total job time:  33805.29s(wall), 471673.25s(cpu)
        *  Thank you very much for using Q-Chem.  Have a nice day.  *
