 Q-Chem 5.0, Q-Chem, Inc., Pleasanton, CA (2017)
 Q-Chem 5.0.2 for Intel X86 EM64T Linux

User input:
--------------------------------------------------------------
$molecule
-2 1
C       -0.8320366220   -0.3437303380    0.5696024402
C        0.4886764597   -0.4484553468   -0.0656461184
H       -1.1461456709   -1.2891712276    1.0313280734
H       -0.8629514931    0.4403113002    1.3352022743
H        0.8039446285   -1.4203741629   -0.4455411571
C        1.3820803213    0.6553081569   -0.2304857721
O        2.5262421621    0.4707314191   -0.8213094693
O        1.0659082161    1.8334220346    0.2094305940
O       -1.9435365580   -0.0021169024   -0.3704699081
H       -1.4817863153    0.1036725303   -1.2115570314
$end

$rem
jobtype               freq
method                wb97x-v
basis                 def2-tzvpd
symmetry              off
sym_ignore            true
incdft                false
incfock               0
!scf_algorithm        diis_gdm
scf_convergence       8
thresh                14
!purecart             112
max_scf_cycles        1000
geom_opt_max_cycles   500
geom_opt_dmax         100
geom_opt_tol_gradient 10
solvent_method        pcm
ideriv                1
rpath_tol_displacement 1000
rpath_max_cycles      100
rpath_direction       1
!scf_guess            read
scf_guess             read
$end

$pcm
theory              cosmo
method              iswig
Radii               bondi
vdwScale            1.20
hpoints             110
heavypoints         110
$end

$solvent
dielectric 78.400000
$end

--------------------------------------------------------------

   18    -342.6488207357      3.26E-09 Convergence criterion met
 Total energy in the final basis set = -342.64882074
   16    -342.6488199739      6.79E-09 Convergence criterion met
 Total energy in the final basis set = -342.64881997
   16    -342.6488201483      4.20E-09 Convergence criterion met
 Total energy in the final basis set = -342.64882015
   16    -342.6488197353      5.59E-09 Convergence criterion met
 Total energy in the final basis set = -342.64881974
   16    -342.6488196675      4.61E-09 Convergence criterion met
 Total energy in the final basis set = -342.64881967
   16    -342.6488196885      7.38E-09 Convergence criterion met
 Total energy in the final basis set = -342.64881969
   16    -342.6488200068      4.42E-09 Convergence criterion met
 Total energy in the final basis set = -342.64882001
   16    -342.6488199316      5.02E-09 Convergence criterion met
 Total energy in the final basis set = -342.64881984
   16    -342.6488198111      3.67E-09 Convergence criterion met
 Total energy in the final basis set = -342.64881981
   17    -342.6488205191      1.49E-09 Convergence criterion met
 Total energy in the final basis set = -342.64882052
   16    -342.6488204414      5.70E-09 Convergence criterion met
 Total energy in the final basis set = -342.64882044
   17    -342.6488206554      2.22E-09 Convergence criterion met
 Total energy in the final basis set = -342.64882066
   17    -342.6488207792      2.24E-09 Convergence criterion met
 Total energy in the final basis set = -342.64882078
   16    -342.6488199849      8.65E-09 Convergence criterion met
 Total energy in the final basis set = -342.64881998
   17    -342.6488200170      1.40E-09 Convergence criterion met
 Total energy in the final basis set = -342.64882002

                    Orbital Energies (a.u.)
 --------------------------------------------------------------

 Alpha MOs
 -- Occupied --
-19.175 -19.101 -19.099 -10.299 -10.274 -10.171  -1.100  -1.088
 -0.992  -0.822  -0.710  -0.583  -0.545  -0.521  -0.500  -0.470
 -0.458  -0.451  -0.410  -0.355  -0.314  -0.313  -0.290  -0.226

          Ground-State Mulliken Net Atomic Charges

     Atom                 Charge (a.u.)
  ----------------------------------------
      1 C                    -0.319535
      2 C                    -0.540240
      3 H                     0.149250
      4 H                     0.110495
      5 H                     0.297308
      6 C                     0.225732
      7 O                    -0.823251
      8 O                    -0.796010
      9 O                    -0.671947
     10 H                     0.368199
  ----------------------------------------
  Sum of atomic charges =    -2.000000

                    Cartesian Multipole Moments
 -----------------------------------------------------------------
    Charge (ESU x 10^10)
                -9.6064
    Dipole Moment (Debye)
         X     -10.3248      Y      -7.4015      Z       2.1687
       Tot      12.8875
    Quadrupole Moments (Debye-Ang)
        XX     -82.6509     XY     -10.9331     YY     -58.1751
        XZ       6.9817     YZ      -0.6335     ZZ     -44.2152

             Standard Nuclear Orientation (Angstroms)
    I     Atom           X                Y                Z
 ----------------------------------------------------------------
    1      C      -0.8320366220    -0.3437303380     0.5696024402
    2      C       0.4886764597    -0.4484553468    -0.0656461184
    3      H      -1.1461456709    -1.2891712276     1.0313280734
    4      H      -0.8629514931     0.4403113002     1.3352022743
    5      H       0.8039446285    -1.4203741629    -0.4455411571
    6      C       1.3820803213     0.6553081569    -0.2304857721
    7      O       2.5262421621     0.4707314191    -0.8213094693
    8      O       1.0659082161     1.8334220346     0.2094305940
    9      O      -1.9435365580    -0.0021169024    -0.3704699081
   10      H      -1.4817863153     0.1036725303    -1.2115570314
 ----------------------------------------------------------------

 Frequency:        80.03                 104.74                 182.29
 Force Cnst:      0.0313                 0.0435                 0.0210
 Red. Mass:       8.3066                 6.7334                 1.0738
 IR Intens:        8.673                  8.450                123.930
 Frequency:       279.87                 418.62                 497.09
 Force Cnst:      0.1291                 0.5966                 0.1607
 Red. Mass:       2.7967                 5.7785                 1.1041
 IR Intens:       12.359                 60.956                225.036
 Frequency:       566.94                 656.78                 801.28
 Force Cnst:      0.7230                 1.2936                 3.3097
 Red. Mass:       3.8177                 5.0898                 8.7492
 IR Intens:       32.840                  6.869                516.880
 Frequency:       810.70                 883.81                1047.32
 Force Cnst:      3.6627                 1.4189                 1.4786
 Red. Mass:       9.4588                 3.0832                 2.2880
 IR Intens:      156.642                 29.789                 32.784
 Frequency:      1133.64                1198.21                1252.70
 Force Cnst:      1.5126                 1.0925                 1.4461
 Red. Mass:       1.9976                 1.2915                 1.5640
 IR Intens:        6.829                228.741                299.400
 Frequency:      1273.11                1359.23                1393.68
 Force Cnst:      1.4531                 3.0615                 2.2812
 Red. Mass:       1.5216                 2.8125                 1.9934
 IR Intens:      629.748                594.735                632.406
 Frequency:      1438.93                1486.16                3014.99
 Force Cnst:      3.0211                 1.5920                 5.6765
 Red. Mass:       2.4765                 1.2234                 1.0599
 IR Intens:      824.004                 36.798                175.119
 Frequency:      3059.31                3131.82                3795.54
 Force Cnst:      6.0811                 6.2817                 9.0471
 Red. Mass:       1.1028                 1.0870                 1.0659
 IR Intens:       78.513                110.399                 62.917

 STANDARD THERMODYNAMIC QUANTITIES AT   298.15 K  AND     1.00 ATM

   This Molecule has  0 Imaginary Frequencies
   Zero point vibrational energy:       42.697 kcal/mol

   Atom    1 Element C  Has Mass   12.00000
   Atom    2 Element C  Has Mass   12.00000
   Atom    3 Element H  Has Mass    1.00783
   Atom    4 Element H  Has Mass    1.00783
   Atom    5 Element H  Has Mass    1.00783
   Atom    6 Element C  Has Mass   12.00000
   Atom    7 Element O  Has Mass   15.99491
   Atom    8 Element O  Has Mass   15.99491
   Atom    9 Element O  Has Mass   15.99491
   Atom   10 Element H  Has Mass    1.00783
   Molecular Mass:    88.016050 amu
   Principal axes and moments of inertia in amu*Bohr^2:
                             1           2           3
    Eigenvalues --      221.50461   852.22951   954.42463
          X               0.95316    -0.24416     0.17851
          Y               0.28016     0.93513    -0.21689
          Z              -0.11397     0.25674     0.95974
   Rotational Symmetry Number is   1
   The Molecule is an Asymmetric Top
   Translational Enthalpy:        0.889 kcal/mol
   Rotational Enthalpy:           0.889 kcal/mol
   Vibrational Enthalpy:         45.016 kcal/mol
   gas constant (RT):             0.592 kcal/mol
   Translational Entropy:        39.337  cal/mol.K
   Rotational Entropy:           26.690  cal/mol.K
   Vibrational Entropy:          14.386  cal/mol.K

   Total Enthalpy:               47.386 kcal/mol
   Total Entropy:                80.414  cal/mol.K

 Total job time:  4123.85s(wall), 58600.19s(cpu)
        *  Thank you very much for using Q-Chem.  Have a nice day.  *
