 Q-Chem 5.0, Q-Chem, Inc., Pleasanton, CA (2017)
 Q-Chem 5.0.2 for Intel X86 EM64T Linux

User input:
--------------------------------------------------------------
$molecule
-2 1
C       -0.6587514450   -0.4016882102    0.6737605213
C        0.5554569393   -0.4596903988    0.0139637163
H       -1.1201641252   -1.3307553249    0.9944581582
H       -0.8496812786    0.4469749504    1.3225224491
H        0.8637449231   -1.3925209466   -0.4564456220
C        1.4225173642    0.7060961501   -0.2125197057
O        2.4988419847    0.5269440924   -0.8825740153
O        1.0987374548    1.8440835807    0.2662541400
O       -2.1503945278    0.0326997301   -0.4449853835
H       -1.6603072896    0.0278563767   -1.2744342584
$end

$rem
jobtype               freq
method                wb97x-v
basis                 def2-tzvpd
symmetry              off
sym_ignore            true
incdft                false
incfock               0
!scf_algorithm        diis_gdm
scf_convergence       8
thresh                14
!purecart             112
max_scf_cycles        1000
geom_opt_max_cycles   500
geom_opt_dmax         100
geom_opt_tol_gradient 10
solvent_method        pcm
ideriv                1
rpath_tol_displacement 1000
rpath_max_cycles      100
rpath_direction       1
!scf_guess            read
scf_guess             read
$end

$pcm
theory              cosmo
method              iswig
Radii               bondi
vdwScale            1.20
hpoints             110
heavypoints         110
$end

$solvent
dielectric 78.400000
$end

--------------------------------------------------------------

   17    -342.6379618056      6.57E-09 Convergence criterion met
 Total energy in the final basis set = -342.63796181
   15    -342.6379611927      6.86E-09 Convergence criterion met
 Total energy in the final basis set = -342.63796119
   16    -342.6379611637      2.24E-09 Convergence criterion met
 Total energy in the final basis set = -342.63796116
   15    -342.6379606502      7.75E-09 Convergence criterion met
 Total energy in the final basis set = -342.63796065
   16    -342.6379607553      1.66E-09 Convergence criterion met
 Total energy in the final basis set = -342.63796076
   16    -342.6379610776      1.94E-09 Convergence criterion met
 Total energy in the final basis set = -342.63796108
   16    -342.6379610953      1.61E-09 Convergence criterion met
 Total energy in the final basis set = -342.63796110
   16    -342.6379608098      1.99E-09 Convergence criterion met
 Total energy in the final basis set = -342.63796126
   15    -342.6379609167      7.80E-09 Convergence criterion met
 Total energy in the final basis set = -342.63796092
   16    -342.6379614564      3.98E-09 Convergence criterion met
 Total energy in the final basis set = -342.63796146
   16    -342.6379616114      8.03E-09 Convergence criterion met
 Total energy in the final basis set = -342.63796161
   17    -342.6379620670      1.34E-09 Convergence criterion met
 Total energy in the final basis set = -342.63796207
   17    -342.6379615388      1.39E-09 Convergence criterion met
 Total energy in the final basis set = -342.63796154
   17    -342.6379612086      7.71E-10 Convergence criterion met
 Total energy in the final basis set = -342.63796121
   16    -342.6379609933      4.20E-09 Convergence criterion met
 Total energy in the final basis set = -342.63796099

                    Orbital Energies (a.u.)
 --------------------------------------------------------------

 Alpha MOs
 -- Occupied --
-19.119 -19.118 -19.118 -10.319 -10.269 -10.194  -1.115  -1.018
 -1.006  -0.849  -0.701  -0.583  -0.539  -0.516  -0.483  -0.476
 -0.462  -0.433  -0.400  -0.334  -0.328  -0.323  -0.309  -0.246

          Ground-State Mulliken Net Atomic Charges

     Atom                 Charge (a.u.)
  ----------------------------------------
      1 C                    -0.396629
      2 C                    -0.319655
      3 H                     0.173704
      4 H                     0.147415
      5 H                     0.282016
      6 C                     0.287964
      7 O                    -0.766053
      8 O                    -0.749480
      9 O                    -0.929102
     10 H                     0.269820
  ----------------------------------------
  Sum of atomic charges =    -2.000000

                    Cartesian Multipole Moments
 -----------------------------------------------------------------
    Charge (ESU x 10^10)
                -9.6064
    Dipole Moment (Debye)
         X      -4.7678      Y      -7.5191      Z       2.7965
       Tot       9.3321
    Quadrupole Moments (Debye-Ang)
        XX     -88.1565     XY      -9.7596     YY     -56.4379
        XZ       3.4000     YZ      -0.0767     ZZ     -44.0482

             Standard Nuclear Orientation (Angstroms)
    I     Atom           X                Y                Z
 ----------------------------------------------------------------
    1      C      -0.6587514450    -0.4016882102     0.6737605213
    2      C       0.5554569393    -0.4596903988     0.0139637163
    3      H      -1.1201641252    -1.3307553249     0.9944581582
    4      H      -0.8496812786     0.4469749504     1.3225224491
    5      H       0.8637449231    -1.3925209466    -0.4564456220
    6      C       1.4225173642     0.7060961501    -0.2125197057
    7      O       2.4988419847     0.5269440924    -0.8825740153
    8      O       1.0987374548     1.8440835807     0.2662541400
    9      O      -2.1503945278     0.0326997301    -0.4449853835
   10      H      -1.6603072896     0.0278563767    -1.2744342584
 ----------------------------------------------------------------

 Frequency:      -433.15                  91.96                 109.08
 Force Cnst:      1.4122                 0.0268                 0.0099
 Red. Mass:      12.7756                 5.3691                 1.4096
 IR Intens:     1630.398                  6.361                 66.345
 Frequency:       128.89                 289.55                 359.61
 Force Cnst:      0.0354                 0.1443                 0.2305
 Red. Mass:       3.6200                 2.9220                 3.0251
 IR Intens:       75.364                 10.316                108.474
 Frequency:       535.31                 640.34                 655.31
 Force Cnst:      0.7158                 0.3005                 0.9017
 Red. Mass:       4.2394                 1.2437                 3.5638
 IR Intens:       21.376                137.915                 21.566
 Frequency:       768.42                 825.71                 885.34
 Force Cnst:      0.5051                 2.2081                 1.3125
 Red. Mass:       1.4520                 5.4969                 2.8421
 IR Intens:       64.560                 67.860                 21.016
 Frequency:      1003.33                1105.65                1125.16
 Force Cnst:      1.0360                 0.8621                 0.8863
 Red. Mass:       1.7467                 1.1970                 1.1882
 IR Intens:       17.816                 33.419                310.156
 Frequency:      1252.92                1339.39                1416.71
 Force Cnst:      1.3344                 3.3519                 2.7830
 Red. Mass:       1.4427                 3.1712                 2.3534
 IR Intens:      239.703                379.264                745.393
 Frequency:      1467.81                1539.41                3136.00
 Force Cnst:      5.8371                 3.6454                 6.1886
 Red. Mass:       4.5984                 2.6109                 1.0680
 IR Intens:      887.909                654.073                 90.394
 Frequency:      3149.20                3223.69                3839.75
 Force Cnst:      6.2969                 6.8339                 9.2717
 Red. Mass:       1.0776                 1.1161                 1.0673
 IR Intens:       51.118                 34.569                  3.769

 STANDARD THERMODYNAMIC QUANTITIES AT   298.15 K  AND     1.00 ATM

   This Molecule has  1 Imaginary Frequencies
   Zero point vibrational energy:       41.298 kcal/mol

   Atom    1 Element C  Has Mass   12.00000
   Atom    2 Element C  Has Mass   12.00000
   Atom    3 Element H  Has Mass    1.00783
   Atom    4 Element H  Has Mass    1.00783
   Atom    5 Element H  Has Mass    1.00783
   Atom    6 Element C  Has Mass   12.00000
   Atom    7 Element O  Has Mass   15.99491
   Atom    8 Element O  Has Mass   15.99491
   Atom    9 Element O  Has Mass   15.99491
   Atom   10 Element H  Has Mass    1.00783
   Molecular Mass:    88.016050 amu
   Principal axes and moments of inertia in amu*Bohr^2:
                             1           2           3
    Eigenvalues --      247.65914   916.70092   999.07163
          X               0.95615    -0.25272     0.14804
          Y               0.27717     0.94410    -0.17845
          Z              -0.09466     0.21166     0.97275
   Rotational Symmetry Number is   1
   The Molecule is an Asymmetric Top
   Translational Enthalpy:        0.889 kcal/mol
   Rotational Enthalpy:           0.889 kcal/mol
   Vibrational Enthalpy:         43.647 kcal/mol
   gas constant (RT):             0.592 kcal/mol
   Translational Entropy:        39.337  cal/mol.K
   Rotational Entropy:           26.919  cal/mol.K
   Vibrational Entropy:          14.666  cal/mol.K

   Total Enthalpy:               46.016 kcal/mol
   Total Entropy:                80.923  cal/mol.K

 Total job time:  12302.38s(wall), 47570.66s(cpu)
        *  Thank you very much for using Q-Chem.  Have a nice day.  *
