 Q-Chem 5.0, Q-Chem, Inc., Pleasanton, CA (2017)
 Q-Chem 5.0.2 for Intel X86 EM64T Linux

User input:
--------------------------------------------------------------
$molecule
-2 1
C       -0.4350414667   -0.7992623103    1.2242518464
C        0.4509799725   -0.7483841465    0.2357998061
H       -0.9104936550   -1.7318541510    1.5151211344
H       -0.7089513935    0.1011241903    1.7675656307
H        0.7238248300   -1.6496365401   -0.3096187860
C        1.1456382896    0.5256500228   -0.2116607291
O        1.9715339246    0.3942880529   -1.1543976811
O        0.8597104265    1.5989337771    0.3752070657
O       -2.5337859729    0.5776176854   -1.5870928101
H       -1.8606358832    0.2435590433   -0.9850707274
$end

$rem
jobtype               freq
method                wb97x-v
basis                 def2-tzvpd
symmetry              off
sym_ignore            true
incdft                false
incfock               0
!scf_algorithm        diis_gdm
scf_convergence       8
thresh                14
!purecart             112
max_scf_cycles        1000
geom_opt_max_cycles   500
geom_opt_dmax         100
geom_opt_tol_gradient 10
solvent_method        pcm
ideriv                1
rpath_tol_displacement 1000
rpath_max_cycles      100
rpath_direction       1
!scf_guess            read
scf_guess             read
$end

$pcm
theory              cosmo
method              iswig
Radii               bondi
vdwScale            1.20
hpoints             110
heavypoints         110
$end

$solvent
dielectric 78.400000
$end

--------------------------------------------------------------

   17    -342.6673977718      6.36E-09 Convergence criterion met
 Total energy in the final basis set = -342.66739777
   16    -342.6673969335      3.01E-09 Convergence criterion met
 Total energy in the final basis set = -342.66739693
   15    -342.6673969696      9.39E-09 Convergence criterion met
 Total energy in the final basis set = -342.66739697
   16    -342.6673966422      3.32E-09 Convergence criterion met
 Total energy in the final basis set = -342.66739664
   16    -342.6673966432      1.93E-09 Convergence criterion met
 Total energy in the final basis set = -342.66739664
   16    -342.6673967983      5.21E-09 Convergence criterion met
 Total energy in the final basis set = -342.66739680
   16    -342.6673968054      2.21E-09 Convergence criterion met
 Total energy in the final basis set = -342.66739681
   16    -342.6673969816      3.83E-09 Convergence criterion met
 Total energy in the final basis set = -342.66739738
   16    -342.6673974240      3.06E-09 Convergence criterion met
 Total energy in the final basis set = -342.66739742
   17    -342.6673973180      1.31E-09 Convergence criterion met
 Total energy in the final basis set = -342.66739732
   16    -342.6673972961      3.10E-09 Convergence criterion met
 Total energy in the final basis set = -342.66739730
   17    -342.6673976394      1.26E-09 Convergence criterion met
 Total energy in the final basis set = -342.66739764
   16    -342.6673976685      6.39E-09 Convergence criterion met
 Total energy in the final basis set = -342.66739767
   17    -342.6673973925      1.29E-09 Convergence criterion met
 Total energy in the final basis set = -342.66739739
   16    -342.6673974056      5.81E-09 Convergence criterion met
 Total energy in the final basis set = -342.66739741

                    Orbital Energies (a.u.)
 --------------------------------------------------------------

 Alpha MOs
 -- Occupied --
-19.143 -19.142 -19.090 -10.346 -10.261 -10.259  -1.147  -1.053
 -0.963  -0.893  -0.719  -0.612  -0.563  -0.541  -0.510  -0.500
 -0.463  -0.447  -0.364  -0.350  -0.345  -0.335  -0.311  -0.310

          Ground-State Mulliken Net Atomic Charges

     Atom                 Charge (a.u.)
  ----------------------------------------
      1 C                    -0.716342
      2 C                    -0.009567
      3 H                     0.250075
      4 H                     0.228278
      5 H                     0.289298
      6 C                     0.387945
      7 O                    -0.702970
      8 O                    -0.692096
      9 O                    -1.123294
     10 H                     0.088672
  ----------------------------------------
  Sum of atomic charges =    -2.000000

                    Cartesian Multipole Moments
 -----------------------------------------------------------------
    Charge (ESU x 10^10)
                -9.6064
    Dipole Moment (Debye)
         X       5.5139      Y      -9.4507      Z      11.0792
       Tot      15.5714
    Quadrupole Moments (Debye-Ang)
        XX     -90.5283     XY       1.8806     YY     -52.2215
        XZ     -16.3520     YZ       4.4672     ZZ     -60.6921

             Standard Nuclear Orientation (Angstroms)
    I     Atom           X                Y                Z
 ----------------------------------------------------------------
    1      C      -0.4350414667    -0.7992623103     1.2242518464
    2      C       0.4509799725    -0.7483841465     0.2357998061
    3      H      -0.9104936550    -1.7318541510     1.5151211344
    4      H      -0.7089513935     0.1011241903     1.7675656307
    5      H       0.7238248300    -1.6496365401    -0.3096187860
    6      C       1.1456382896     0.5256500228    -0.2116607291
    7      O       1.9715339246     0.3942880529    -1.1543976811
    8      O       0.8597104265     1.5989337771     0.3752070657
    9      O      -2.5337859729     0.5776176854    -1.5870928101
   10      H      -1.8606358832     0.2435590433    -0.9850707274
 ----------------------------------------------------------------

 Frequency:        30.58                  46.39                  71.83
 Force Cnst:      0.0048                 0.0077                 0.0194
 Red. Mass:       8.7959                 6.0568                 6.3898
 IR Intens:       16.982                  7.470                 36.977
 Frequency:        92.54                 187.62                 265.71
 Force Cnst:      0.0137                 0.0216                 0.0435
 Red. Mass:       2.7203                 1.0424                 1.0451
 IR Intens:        3.506                111.314                117.104
 Frequency:       289.99                 523.16                 527.88
 Force Cnst:      0.1796                 0.2750                 0.6645
 Red. Mass:       3.6251                 1.7055                 4.0473
 IR Intens:        0.752                  1.502                  9.974
 Frequency:       648.75                 866.43                 883.66
 Force Cnst:      0.9927                 1.8673                 1.9815
 Red. Mass:       4.0032                 4.2218                 4.3070
 IR Intens:       31.144                 49.534                 50.805
 Frequency:      1009.46                1046.15                1062.62
 Force Cnst:      0.7958                 0.7336                 1.0493
 Red. Mass:       1.3255                 1.1376                 1.5773
 IR Intens:       71.759                 22.300                 12.121
 Frequency:      1293.10                1384.33                1445.80
 Force Cnst:      1.3250                 2.2300                 2.7730
 Red. Mass:       1.3450                 1.9750                 2.2516
 IR Intens:       25.440                141.523                331.816
 Frequency:      1596.59                1721.14                3150.80
 Force Cnst:     17.3389                 9.1903                 6.1912
 Red. Mass:      11.5448                 5.2656                 1.0585
 IR Intens:     1195.654                 34.696                 15.915
 Frequency:      3176.82                3242.03                3846.76
 Force Cnst:      6.5050                 6.9153                 9.3001
 Red. Mass:       1.0940                 1.1167                 1.0667
 IR Intens:       17.866                  9.865                  2.347

 STANDARD THERMODYNAMIC QUANTITIES AT   298.15 K  AND     1.00 ATM

   This Molecule has  0 Imaginary Frequencies
   Zero point vibrational energy:       40.614 kcal/mol

   Atom    1 Element C  Has Mass   12.00000
   Atom    2 Element C  Has Mass   12.00000
   Atom    3 Element H  Has Mass    1.00783
   Atom    4 Element H  Has Mass    1.00783
   Atom    5 Element H  Has Mass    1.00783
   Atom    6 Element C  Has Mass   12.00000
   Atom    7 Element O  Has Mass   15.99491
   Atom    8 Element O  Has Mass   15.99491
   Atom    9 Element O  Has Mass   15.99491
   Atom   10 Element H  Has Mass    1.00783
   Molecular Mass:    88.016050 amu
   Principal axes and moments of inertia in amu*Bohr^2:
                             1           2           3
    Eigenvalues --      508.88894   895.51695  1087.86931
          X               0.97568    -0.13365    -0.17373
          Y               0.05805    -0.60671     0.79280
          Z               0.21136     0.78361     0.58420
   Rotational Symmetry Number is   1
   The Molecule is an Asymmetric Top
   Translational Enthalpy:        0.889 kcal/mol
   Rotational Enthalpy:           0.889 kcal/mol
   Vibrational Enthalpy:         44.083 kcal/mol
   gas constant (RT):             0.592 kcal/mol
   Translational Entropy:        39.337  cal/mol.K
   Rotational Entropy:           27.696  cal/mol.K
   Vibrational Entropy:          26.005  cal/mol.K

   Total Enthalpy:               46.453 kcal/mol
   Total Entropy:                93.039  cal/mol.K

 Total job time:  4004.58s(wall), 55882.12s(cpu)
        *  Thank you very much for using Q-Chem.  Have a nice day.  *
