 Q-Chem 5.0, Q-Chem, Inc., Pleasanton, CA (2017)
 Q-Chem 5.0.2 for Intel X86 EM64T Linux

User input:
--------------------------------------------------------------
$molecule
-2 1
C       -3.1244013448    0.6124285276   -0.9962948017
H       -3.1170544490    1.6723215314   -0.7206074227
H       -4.1026070729    0.1994644110   -0.7448774582
H       -2.9454919576    0.5399559589   -2.0702469954
C       -2.0329122380   -0.0893735846   -0.2060097718
C        0.5441521289   -0.8616260289    0.1732379755
H        1.0024602452   -1.0675566045   -0.7788438283
H       -0.0836235480   -1.6095846044    0.6289321592
C        0.9269419032    0.3544119641    0.9744877073
H        1.4625041102    0.0210000954    1.8677150888
C        1.8482644319    1.3429676159    0.2465834100
O       -2.2881482602   -0.5837961764    0.9016239772
O       -0.8734860631   -0.0869834017   -0.7635650453
O        2.7439332800    0.8654857721   -0.5077510885
O        1.6763122983    2.5635361316    0.4786797369
H        0.0297734683    0.8758993995    1.3104299533
O        2.1245803647   -2.0149663400    0.8132622229
O        3.1183282474   -1.8537742626   -0.2357274970
H        3.0904744556   -0.8798104041   -0.3710283226
$end

$rem
jobtype               freq
method                wb97x-v
basis                 def2-tzvpd
symmetry              off
sym_ignore            true
incdft                false
incfock               0
!scf_algorithm        diis_gdm
scf_convergence       8
thresh                14
!purecart             112
max_scf_cycles        1000
geom_opt_max_cycles   500
geom_opt_dmax         100
geom_opt_tol_gradient 10
solvent_method        pcm
ideriv                1
rpath_tol_displacement 1000
rpath_max_cycles      100
rpath_direction       1
!scf_guess            read
scf_guess             read
$end

$pcm
theory              cosmo
method              iswig
Radii               bondi
vdwScale            1.20
hpoints             110
heavypoints         110
$end

$solvent
dielectric 78.400000
$end

--------------------------------------------------------------

   17    -646.9213980148      4.90E-09 Convergence criterion met
 Total energy in the final basis set = -646.92139801
   15    -646.9213970486      2.71E-09 Convergence criterion met
 Total energy in the final basis set = -646.92139705
   15    -646.9213970379      2.91E-09 Convergence criterion met
 Total energy in the final basis set = -646.92139704
   15    -646.9213970662      3.82E-09 Convergence criterion met
 Total energy in the final basis set = -646.92139707
   15    -646.9213971212      3.34E-09 Convergence criterion met
 Total energy in the final basis set = -646.92139712
   15    -646.9213969712      3.87E-09 Convergence criterion met
 Total energy in the final basis set = -646.92139697
   15    -646.9213970316      2.65E-09 Convergence criterion met
 Total energy in the final basis set = -646.92139703
   15    -646.9213979454      2.61E-09 Convergence criterion met
 Total energy in the final basis set = -646.92139779
   15    -646.9213976277      3.13E-09 Convergence criterion met
 Total energy in the final basis set = -646.92139763
   15    -646.9213979244      7.55E-09 Convergence criterion met
 Total energy in the final basis set = -646.92139792
   17    -646.9213979308      7.60E-10 Convergence criterion met
 Total energy in the final basis set = -646.92139793
   16    -646.9213972501      1.65E-09 Convergence criterion met
 Total energy in the final basis set = -646.92139725
   15    -646.9213973106      4.00E-09 Convergence criterion met
 Total energy in the final basis set = -646.92139731
   16    -646.9213979601      2.59E-09 Convergence criterion met
 Total energy in the final basis set = -646.92139796
   17    -646.9213978729      7.44E-10 Convergence criterion met
 Total energy in the final basis set = -646.92139787

                    Orbital Energies (a.u.)
 --------------------------------------------------------------

 Alpha MOs
 -- Occupied --
-19.196 -19.184 -19.162 -19.153 -19.148 -19.145 -10.366 -10.348
-10.322 -10.252 -10.251  -1.177  -1.153  -1.142  -1.083  -1.057
 -0.909  -0.872  -0.845  -0.749  -0.636  -0.614  -0.585  -0.575
 -0.554  -0.552  -0.538  -0.534  -0.522  -0.501  -0.489  -0.476
 -0.473  -0.465  -0.450  -0.434  -0.383  -0.375  -0.356  -0.354
 -0.345  -0.340  -0.303  -0.278

          Ground-State Mulliken Net Atomic Charges

     Atom                 Charge (a.u.)
  ----------------------------------------
      1 C                    -0.849041
      2 H                     0.210402
      3 H                     0.241213
      4 H                     0.234221
      5 C                     0.581840
      6 C                    -0.077952
      7 H                     0.246237
      8 H                     0.153839
      9 C                     0.092325
     10 H                     0.201455
     11 C                     0.132978
     12 O                    -0.630390
     13 O                    -0.560393
     14 O                    -0.744489
     15 O                    -0.710539
     16 H                     0.202059
     17 O                    -0.668000
     18 O                    -0.424826
     19 H                     0.369060
  ----------------------------------------
  Sum of atomic charges =    -2.000000

                    Cartesian Multipole Moments
 -----------------------------------------------------------------
    Charge (ESU x 10^10)
                -9.6064
    Dipole Moment (Debye)
         X     -15.2865      Y       1.1137      Z      -2.7649
       Tot      15.5744
    Quadrupole Moments (Debye-Ang)
        XX    -127.8075     XY       1.0042     YY    -112.8987
        XZ       5.4051     YZ       4.3138     ZZ     -77.3939

             Standard Nuclear Orientation (Angstroms)
    I     Atom           X                Y                Z
 ----------------------------------------------------------------
    1      C      -3.1244013448     0.6124285276    -0.9962948017
    2      H      -3.1170544490     1.6723215314    -0.7206074227
    3      H      -4.1026070729     0.1994644110    -0.7448774582
    4      H      -2.9454919576     0.5399559589    -2.0702469954
    5      C      -2.0329122380    -0.0893735846    -0.2060097718
    6      C       0.5441521289    -0.8616260289     0.1732379755
    7      H       1.0024602452    -1.0675566045    -0.7788438283
    8      H      -0.0836235480    -1.6095846044     0.6289321592
    9      C       0.9269419032     0.3544119641     0.9744877073
   10      H       1.4625041102     0.0210000954     1.8677150888
   11      C       1.8482644319     1.3429676159     0.2465834100
   12      O      -2.2881482602    -0.5837961764     0.9016239772
   13      O      -0.8734860631    -0.0869834017    -0.7635650453
   14      O       2.7439332800     0.8654857721    -0.5077510885
   15      O       1.6763122983     2.5635361316     0.4786797369
   16      H       0.0297734683     0.8758993995     1.3104299533
   17      O       2.1245803647    -2.0149663400     0.8132622229
   18      O       3.1183282474    -1.8537742626    -0.2357274970
   19      H       3.0904744556    -0.8798104041    -0.3710283226
 ----------------------------------------------------------------

 Frequency:      -656.43                  33.89                  51.29
 Force Cnst:      2.5055                 0.0047                 0.0031
 Red. Mass:       9.8688                 6.9162                 1.9691
 IR Intens:     2247.205                  9.870                  3.720
 Frequency:        57.15                  60.58                  81.86
 Force Cnst:      0.0120                 0.0039                 0.0191
 Red. Mass:       6.2177                 1.8043                 4.8482
 IR Intens:        2.905                  2.731                 12.285
 Frequency:        99.18                 136.53                 197.71
 Force Cnst:      0.0438                 0.1143                 0.2051
 Red. Mass:       7.5489                10.4084                 8.9036
 IR Intens:        0.083                  4.979                  5.084
 Frequency:       209.87                 270.02                 279.04
 Force Cnst:      0.1862                 0.3282                 0.2417
 Red. Mass:       7.1751                 7.6412                 5.2696
 IR Intens:       24.276                 23.380                 48.020
 Frequency:       385.69                 442.75                 483.16
 Force Cnst:      0.2680                 0.4608                 0.4751
 Red. Mass:       3.0573                 3.9893                 3.4543
 IR Intens:        5.434                 15.918                  2.841
 Frequency:       504.29                 601.11                 623.90
 Force Cnst:      0.3831                 0.8845                 0.6091
 Red. Mass:       2.5571                 4.1546                 2.6559
 IR Intens:       32.433                 39.086                 27.596
 Frequency:       672.35                 697.04                 725.48
 Force Cnst:      1.2686                 0.6763                 0.3583
 Red. Mass:       4.7629                 2.3626                 1.1553
 IR Intens:       69.707                 18.296                141.661
 Frequency:       872.32                 936.84                 948.72
 Force Cnst:      1.6529                 2.7259                 1.2273
 Red. Mass:       3.6867                 5.2715                 2.3144
 IR Intens:       36.500                  6.160                 68.112
 Frequency:       962.43                1015.21                1026.24
 Force Cnst:      6.6467                 1.1513                 0.9174
 Red. Mass:      12.1792                 1.8960                 1.4784
 IR Intens:        4.910                 26.188                 34.690
 Frequency:      1063.18                1091.10                1141.34
 Force Cnst:      1.2795                 1.6457                 0.8315
 Red. Mass:       1.9212                 2.3463                 1.0833
 IR Intens:       14.744                  2.537                 28.227
 Frequency:      1203.85                1230.63                1337.97
 Force Cnst:      0.9567                 1.0242                 1.7709
 Red. Mass:       1.1204                 1.1478                 1.6789
 IR Intens:       71.133                155.553                 33.584
 Frequency:      1363.60                1415.66                1422.06
 Force Cnst:      1.6348                 2.2669                 1.8764
 Red. Mass:       1.4923                 1.9199                 1.5749
 IR Intens:       81.004                432.510                107.987
 Frequency:      1440.09                1445.80                1455.34
 Force Cnst:      1.4584                 4.8741                 1.4313
 Red. Mass:       1.1936                 3.9575                 1.1470
 IR Intens:       47.854                275.664                 69.433
 Frequency:      1468.63                1470.58                1594.26
 Force Cnst:      1.4010                 1.4653                12.2481
 Red. Mass:       1.1025                 1.1500                 8.1790
 IR Intens:      115.517                 91.082               1207.917
 Frequency:      1635.00                3065.48                3094.33
 Force Cnst:     14.0301                 5.7457                 6.0008
 Red. Mass:       8.9079                 1.0378                 1.0637
 IR Intens:      862.052                  9.512                 14.866
 Frequency:      3139.54                3145.55                3166.66
 Force Cnst:      6.3780                 6.4088                 6.5338
 Red. Mass:       1.0983                 1.0993                 1.1059
 IR Intens:       17.266                 23.840                 25.535
 Frequency:      3221.28                3346.62                3424.33
 Force Cnst:      6.4438                 7.4398                 7.4049
 Red. Mass:       1.0540                 1.1274                 1.0718
 IR Intens:        9.998                  1.172                842.625

 STANDARD THERMODYNAMIC QUANTITIES AT   298.15 K  AND     1.00 ATM

   This Molecule has  1 Imaginary Frequencies
   Zero point vibrational energy:       85.428 kcal/mol

   Atom    1 Element C  Has Mass   12.00000
   Atom    2 Element H  Has Mass    1.00783
   Atom    3 Element H  Has Mass    1.00783
   Atom    4 Element H  Has Mass    1.00783
   Atom    5 Element C  Has Mass   12.00000
   Atom    6 Element C  Has Mass   12.00000
   Atom    7 Element H  Has Mass    1.00783
   Atom    8 Element H  Has Mass    1.00783
   Atom    9 Element C  Has Mass   12.00000
   Atom   10 Element H  Has Mass    1.00783
   Atom   11 Element C  Has Mass   12.00000
   Atom   12 Element O  Has Mass   15.99491
   Atom   13 Element O  Has Mass   15.99491
   Atom   14 Element O  Has Mass   15.99491
   Atom   15 Element O  Has Mass   15.99491
   Atom   16 Element H  Has Mass    1.00783
   Atom   17 Element O  Has Mass   15.99491
   Atom   18 Element O  Has Mass   15.99491
   Atom   19 Element H  Has Mass    1.00783
   Molecular Mass:   164.032100 amu
   Principal axes and moments of inertia in amu*Bohr^2:
                             1           2           3
    Eigenvalues --     1279.14150  2864.20253  3624.50155
          X               0.99359     0.08555    -0.07387
          Y              -0.08112     0.99483     0.06105
          Z               0.07871    -0.05467     0.99540
   Rotational Symmetry Number is   1
   The Molecule is an Asymmetric Top
   Translational Enthalpy:        0.889 kcal/mol
   Rotational Enthalpy:           0.889 kcal/mol
   Vibrational Enthalpy:         91.489 kcal/mol
   gas constant (RT):             0.592 kcal/mol
   Translational Entropy:        41.193  cal/mol.K
   Rotational Entropy:           30.963  cal/mol.K
   Vibrational Entropy:          42.919  cal/mol.K

   Total Enthalpy:               93.859 kcal/mol
   Total Entropy:               115.075  cal/mol.K

 Total job time:  150951.10s(wall), 583743.60s(cpu)
        *  Thank you very much for using Q-Chem.  Have a nice day.  *
