 Q-Chem 5.0, Q-Chem, Inc., Pleasanton, CA (2017)
 Q-Chem 5.0.2 for Intel X86 EM64T Linux

User input:
--------------------------------------------------------------
$molecule
-2 1
C       -3.0173326172    0.9468029420   -0.8881706017
H       -2.3696574069    1.6346606289   -0.3338487058
H       -3.9589066870    0.8385387149   -0.3465764470
H       -3.2040574406    1.3930567201   -1.8685476250
C       -2.2969399451   -0.3955070006   -1.0424946701
C        0.9894418269   -1.1283818327    1.0303786280
H        0.7235250493   -1.5727513925    0.0641666167
H        0.3200348419   -1.5392848456    1.7938501019
C        0.8493293654    0.3892156224    1.0216244120
H        1.2378197698    0.7772849972    1.9724263365
C        1.5538793463    1.1749948170   -0.0906744217
O       -2.6584584537   -1.3446681348   -0.2962783330
O       -1.3853046819   -0.4541696767   -1.9095287040
O        2.6060000814    0.6821460753   -0.6075802987
O        1.0680448783    2.2818808987   -0.4012800579
H       -0.2176473688    0.6332851091    0.9955395870
O        2.2861750299   -1.5917957012    1.4082183159
O        3.1206304393   -1.6647068174    0.2471636956
H        3.0224823217   -0.7274824088   -0.1272692672
$end

$rem
jobtype               freq
method                wb97x-v
basis                 def2-tzvpd
symmetry              off
sym_ignore            true
incdft                false
incfock               0
!scf_algorithm        diis_gdm
scf_convergence       8
thresh                14
!purecart             112
max_scf_cycles        1000
geom_opt_max_cycles   500
geom_opt_dmax         100
geom_opt_tol_gradient 10
solvent_method        pcm
ideriv                1
rpath_tol_displacement 1000
rpath_max_cycles      100
rpath_direction       1
!scf_guess            read
scf_guess             read
$end

$pcm
theory              cosmo
method              iswig
Radii               bondi
vdwScale            1.20
hpoints             110
heavypoints         110
$end

$solvent
dielectric 78.400000
$end

--------------------------------------------------------------

   17    -646.9974091484      3.79E-09 Convergence criterion met
 Total energy in the final basis set = -646.99740915
   15    -646.9974081836      4.49E-09 Convergence criterion met
 Total energy in the final basis set = -646.99740818
   14    -646.9974081351      4.15E-09 Convergence criterion met
 Total energy in the final basis set = -646.99740814
   14    -646.9974088241      3.22E-09 Convergence criterion met
 Total energy in the final basis set = -646.99740882
   14    -646.9974077560      4.68E-09 Convergence criterion met
 Total energy in the final basis set = -646.99740776
   14    -646.9974074797      3.33E-09 Convergence criterion met
 Total energy in the final basis set = -646.99740748
   14    -646.9974087902      4.71E-09 Convergence criterion met
 Total energy in the final basis set = -646.99740879
   15    -646.9974093433      5.78E-09 Convergence criterion met
 Total energy in the final basis set = -646.99740928
   14    -646.9974080507      3.68E-09 Convergence criterion met
 Total energy in the final basis set = -646.99740805
   15    -646.9974083894      7.55E-09 Convergence criterion met
 Total energy in the final basis set = -646.99740839
   16    -646.9974097007      8.56E-09 Convergence criterion met
 Total energy in the final basis set = -646.99740970
   16    -646.9974099815      5.13E-09 Convergence criterion met
 Total energy in the final basis set = -646.99740998
   14    -646.9974074176      6.10E-09 Convergence criterion met
 Total energy in the final basis set = -646.99740742
   17    -646.9974094920      6.98E-10 Convergence criterion met
 Total energy in the final basis set = -646.99740949
   16    -646.9974084272      3.68E-09 Convergence criterion met
 Total energy in the final basis set = -646.99740843

                    Orbital Energies (a.u.)
 --------------------------------------------------------------

 Alpha MOs
 -- Occupied --
-19.256 -19.232 -19.161 -19.151 -19.140 -19.139 -10.357 -10.342
-10.308 -10.258 -10.242  -1.235  -1.161  -1.142  -1.068  -1.048
 -1.011  -0.876  -0.831  -0.752  -0.640  -0.623  -0.604  -0.589
 -0.564  -0.546  -0.533  -0.528  -0.528  -0.527  -0.519  -0.482
 -0.474  -0.466  -0.451  -0.446  -0.415  -0.367  -0.357  -0.353
 -0.347  -0.338  -0.332  -0.329

          Ground-State Mulliken Net Atomic Charges

     Atom                 Charge (a.u.)
  ----------------------------------------
      1 C                    -0.592710
      2 H                     0.152389
      3 H                     0.216675
      4 H                     0.222976
      5 C                     0.456851
      6 C                    -0.287827
      7 H                     0.167075
      8 H                     0.197830
      9 C                     0.023450
     10 H                     0.215460
     11 C                     0.266461
     12 O                    -0.719173
     13 O                    -0.704035
     14 O                    -0.735934
     15 O                    -0.693392
     16 H                     0.061477
     17 O                    -0.239032
     18 O                    -0.425045
     19 H                     0.416503
  ----------------------------------------
  Sum of atomic charges =    -2.000000

                    Cartesian Multipole Moments
 -----------------------------------------------------------------
    Charge (ESU x 10^10)
                -9.6064
    Dipole Moment (Debye)
         X      -3.6640      Y       2.0242      Z       7.5717
       Tot       8.6518
    Quadrupole Moments (Debye-Ang)
        XX    -122.6657     XY     -11.1420     YY    -101.9854
        XZ      -4.7152     YZ       4.3186     ZZ     -83.7052

             Standard Nuclear Orientation (Angstroms)
    I     Atom           X                Y                Z
 ----------------------------------------------------------------
    1      C      -3.0173326172     0.9468029420    -0.8881706017
    2      H      -2.3696574069     1.6346606289    -0.3338487058
    3      H      -3.9589066870     0.8385387149    -0.3465764470
    4      H      -3.2040574406     1.3930567201    -1.8685476250
    5      C      -2.2969399451    -0.3955070006    -1.0424946701
    6      C       0.9894418269    -1.1283818327     1.0303786280
    7      H       0.7235250493    -1.5727513925     0.0641666167
    8      H       0.3200348419    -1.5392848456     1.7938501019
    9      C       0.8493293654     0.3892156224     1.0216244120
   10      H       1.2378197698     0.7772849972     1.9724263365
   11      C       1.5538793463     1.1749948170    -0.0906744217
   12      O      -2.6584584537    -1.3446681348    -0.2962783330
   13      O      -1.3853046819    -0.4541696767    -1.9095287040
   14      O       2.6060000814     0.6821460753    -0.6075802987
   15      O       1.0680448783     2.2818808987    -0.4012800579
   16      H      -0.2176473688     0.6332851091     0.9955395870
   17      O       2.2861750299    -1.5917957012     1.4082183159
   18      O       3.1206304393    -1.6647068174     0.2471636956
   19      H       3.0224823217    -0.7274824088    -0.1272692672
 ----------------------------------------------------------------

 Frequency:       -21.07                 -12.16                  12.79
 Force Cnst:      0.0010                 0.0001                 0.0005
 Red. Mass:       4.0000                 1.1975                 5.6717
 IR Intens:        4.408                  0.046                 11.073
 Frequency:        25.42                  35.33                  40.29
 Force Cnst:      0.0033                 0.0041                 0.0040
 Red. Mass:       8.7937                 5.6171                 4.2261
 IR Intens:        3.816                  0.805                 16.217
 Frequency:        55.65                  70.07                 114.51
 Force Cnst:      0.0117                 0.0289                 0.0294
 Red. Mass:       6.4116                 9.9795                 3.8098
 IR Intens:       17.844                 12.412                  5.311
 Frequency:       230.89                 290.29                 350.72
 Force Cnst:      0.1281                 0.4185                 0.3634
 Red. Mass:       4.0790                 8.4287                 5.0142
 IR Intens:        6.082                 86.914                  4.681
 Frequency:       453.56                 474.29                 496.76
 Force Cnst:      0.3698                 0.4628                 0.2700
 Red. Mass:       3.0510                 3.4916                 1.8570
 IR Intens:        2.187                  1.862                 17.369
 Frequency:       611.88                 618.90                 648.85
 Force Cnst:      1.1124                 0.5843                 1.1896
 Red. Mass:       5.0428                 2.5891                 4.7957
 IR Intens:       55.938                 16.439                 31.887
 Frequency:       715.57                 848.87                 901.27
 Force Cnst:      1.0635                 1.7043                 0.7221
 Red. Mass:       3.5253                 4.0145                 1.5089
 IR Intens:       13.483                 67.899                124.257
 Frequency:       909.08                 921.22                 956.34
 Force Cnst:      1.0086                 3.1143                 1.6224
 Red. Mass:       2.0714                 6.2285                 3.0109
 IR Intens:       63.609                 23.791                  7.561
 Frequency:      1022.59                1024.87                1058.62
 Force Cnst:      0.8993                 1.5426                 1.3010
 Red. Mass:       1.4596                 2.4927                 1.9704
 IR Intens:       20.810                 27.391                 11.300
 Frequency:      1080.95                1113.66                1232.96
 Force Cnst:      2.0665                 2.5488                 1.0956
 Red. Mass:       3.0017                 3.4880                 1.2233
 IR Intens:       50.349                 22.495                 14.264
 Frequency:      1291.12                1352.43                1357.61
 Force Cnst:      1.1761                 1.8287                 1.5191
 Red. Mass:       1.1975                 1.6969                 1.3989
 IR Intens:        7.681                 37.691                 10.122
 Frequency:      1392.15                1430.04                1431.10
 Force Cnst:      1.7108                 1.3895                 3.9893
 Red. Mass:       1.4982                 1.1532                 3.3060
 IR Intens:       10.479                 78.928                360.625
 Frequency:      1443.27                1451.64                1464.57
 Force Cnst:      3.6464                 1.4551                 1.4771
 Red. Mass:       2.9711                 1.1720                 1.1688
 IR Intens:      251.136                120.189                 52.016
 Frequency:      1471.93                1583.40                1583.54
 Force Cnst:      1.4476                 8.5306                 6.2614
 Red. Mass:       1.1340                 5.7749                 4.2380
 IR Intens:       35.701               1236.134               1325.474
 Frequency:      1658.79                2857.15                3054.39
 Force Cnst:      2.1974                 5.2103                 5.8508
 Red. Mass:       1.3554                 1.0833                 1.0644
 IR Intens:      134.484               1999.528                 17.547
 Frequency:      3055.89                3056.47                3110.05
 Force Cnst:      5.7252                 5.8123                 6.2691
 Red. Mass:       1.0406                 1.0560                 1.1001
 IR Intens:       19.999                 28.796                 27.876
 Frequency:      3112.50                3126.20                3148.05
 Force Cnst:      6.3080                 6.3330                 6.4519
 Red. Mass:       1.1052                 1.0998                 1.1050
 IR Intens:       25.237                 28.502                 41.002

 STANDARD THERMODYNAMIC QUANTITIES AT   298.15 K  AND     1.00 ATM

   This Molecule has  2 Imaginary Frequencies
   Zero point vibrational energy:       85.415 kcal/mol

   Atom    1 Element C  Has Mass   12.00000
   Atom    2 Element H  Has Mass    1.00783
   Atom    3 Element H  Has Mass    1.00783
   Atom    4 Element H  Has Mass    1.00783
   Atom    5 Element C  Has Mass   12.00000
   Atom    6 Element C  Has Mass   12.00000
   Atom    7 Element H  Has Mass    1.00783
   Atom    8 Element H  Has Mass    1.00783
   Atom    9 Element C  Has Mass   12.00000
   Atom   10 Element H  Has Mass    1.00783
   Atom   11 Element C  Has Mass   12.00000
   Atom   12 Element O  Has Mass   15.99491
   Atom   13 Element O  Has Mass   15.99491
   Atom   14 Element O  Has Mass   15.99491
   Atom   15 Element O  Has Mass   15.99491
   Atom   16 Element H  Has Mass    1.00783
   Atom   17 Element O  Has Mass   15.99491
   Atom   18 Element O  Has Mass   15.99491
   Atom   19 Element H  Has Mass    1.00783
   Molecular Mass:   164.032100 amu
   Principal axes and moments of inertia in amu*Bohr^2:
                             1           2           3
    Eigenvalues --     1301.85006  3217.01235  3902.13146
          X               0.95700     0.15771    -0.24347
          Y              -0.07822     0.94851     0.30695
          Z               0.27934    -0.27471     0.92006
   Rotational Symmetry Number is   1
   The Molecule is an Asymmetric Top
   Translational Enthalpy:        0.889 kcal/mol
   Rotational Enthalpy:           0.889 kcal/mol
   Vibrational Enthalpy:         91.025 kcal/mol
   gas constant (RT):             0.592 kcal/mol
   Translational Entropy:        41.193  cal/mol.K
   Rotational Entropy:           31.169  cal/mol.K
   Vibrational Entropy:          45.862  cal/mol.K

   Total Enthalpy:               93.395 kcal/mol
   Total Entropy:               118.224  cal/mol.K

 Total job time:  46560.94s(wall), 646712.14s(cpu)
        *  Thank you very much for using Q-Chem.  Have a nice day.  *
