 Q-Chem 5.0, Q-Chem, Inc., Pleasanton, CA (2017)
 Q-Chem 5.0.2 for Intel X86 EM64T Linux

User input:
--------------------------------------------------------------
$molecule
-2 1
C       -2.6158626764    0.3702193368   -1.0076411029
H       -2.8948818871    1.1307089350   -0.2726376553
H       -2.3506549015    0.8662256196   -1.9453375509
H       -3.4666048186   -0.2923183482   -1.1805715615
C       -1.4295422973   -0.4554090847   -0.5228888643
C        0.8383073015   -0.0417239919    0.1890038944
H        1.2212162722   -0.7935236769   -0.5099123416
H        0.6676366364   -0.5355794206    1.1526019043
C        1.8275332673    1.0978505196    0.3400909065
H        1.4255694028    1.8502428371    1.0294732839
H        1.9610368199    1.6043484949   -0.6225717684
C        3.2167609446    0.6934568810    0.8561171311
O       -1.8530284030   -0.9201176296    0.8608566100
O       -1.0892859789   -1.4916866983   -1.2440949498
H       -1.1515119730   -2.4095084778    0.0461382689
O       -0.3825087934    0.5027405626   -0.2981347770
O        4.0792282541    1.6115310260    0.8991492086
O        3.4036139891   -0.5011228375    1.2024246922
O       -1.4127076696   -2.2729743575    1.0151810450
$end

$rem
jobtype               freq
method                wb97x-v
basis                 def2-tzvpd
symmetry              off
sym_ignore            true
unrestricted          false
incdft                false
incfock               0
!scf_algorithm        diis_gdm
scf_convergence       8
thresh                14
!purecart             112
max_scf_cycles        1000
geom_opt_max_cycles   900
geom_opt_dmax         100
geom_opt_tol_gradient 10
solvent_method        pcm
ideriv                1
rpath_tol_displacement 1000
rpath_max_cycles      100
rpath_direction       1
!scf_guess            read
scf_guess             read
$end

$pcm
theory              cosmo
method              iswig
Radii               bondi
vdwScale            1.20
hpoints             110
heavypoints         110
$end

$solvent
dielectric 78.400000
$end

--------------------------------------------------------------

   17    -646.9667830359      2.39E-09 Convergence criterion met
 Total energy in the final basis set = -646.96678304
   13    -646.9667821036      9.51E-09 Convergence criterion met
 Total energy in the final basis set = -646.96678210
   14    -646.9667820616      5.14E-09 Convergence criterion met
 Total energy in the final basis set = -646.96678206
   14    -646.9667821137      8.23E-09 Convergence criterion met
 Total energy in the final basis set = -646.96678211
   14    -646.9667819470      5.43E-09 Convergence criterion met
 Total energy in the final basis set = -646.96678195
   14    -646.9667820216      8.61E-09 Convergence criterion met
 Total energy in the final basis set = -646.96678202
   14    -646.9667819986      5.39E-09 Convergence criterion met
 Total energy in the final basis set = -646.96678200
   13    -646.9667829009      9.81E-09 Convergence criterion met
 Total energy in the final basis set = -646.96678289
   14    -646.9667829141      8.65E-09 Convergence criterion met
 Total energy in the final basis set = -646.96678291
   13    -646.9667829296      9.53E-09 Convergence criterion met
 Total energy in the final basis set = -646.96678293
   13    -646.9667828879      9.45E-09 Convergence criterion met
 Total energy in the final basis set = -646.96678289
   15    -646.9667823690      4.32E-09 Convergence criterion met
 Total energy in the final basis set = -646.96678237
   14    -646.9667826033      5.34E-09 Convergence criterion met
 Total energy in the final basis set = -646.96678260
   13    -646.9667823363      9.43E-09 Convergence criterion met
 Total energy in the final basis set = -646.96678234
   14    -646.9667822487      5.74E-09 Convergence criterion met
 Total energy in the final basis set = -646.96678225

                    Orbital Energies (a.u.)
 --------------------------------------------------------------

 Alpha MOs
 -- Occupied --
-19.228 -19.224 -19.192 -19.140 -19.138 -19.127 -10.377 -10.342
-10.288 -10.246 -10.240  -1.228  -1.149  -1.143  -1.063  -1.049
 -0.970  -0.877  -0.833  -0.739  -0.672  -0.635  -0.601  -0.578
 -0.567  -0.553  -0.529  -0.526  -0.511  -0.505  -0.490  -0.478
 -0.471  -0.455  -0.440  -0.429  -0.415  -0.369  -0.349  -0.345
 -0.340  -0.333  -0.331  -0.314

          Ground-State Mulliken Net Atomic Charges

     Atom                 Charge (a.u.)
  ----------------------------------------
      1 C                    -1.166876
      2 H                     0.226433
      3 H                     0.248897
      4 H                     0.246218
      5 C                     0.781115
      6 C                    -0.200778
      7 H                     0.167823
      8 H                     0.191410
      9 C                    -0.077135
     10 H                     0.228163
     11 H                     0.244460
     12 C                     0.042957
     13 O                    -0.305531
     14 O                    -0.913103
     15 H                     0.370052
     16 O                    -0.268982
     17 O                    -0.710832
     18 O                    -0.691429
     19 O                    -0.412864
  ----------------------------------------
  Sum of atomic charges =    -2.000000

                    Cartesian Multipole Moments
 -----------------------------------------------------------------
    Charge (ESU x 10^10)
                -9.6064
    Dipole Moment (Debye)
         X     -12.8886      Y       3.7054      Z      -4.9356
       Tot      14.2901
    Quadrupole Moments (Debye-Ang)
        XX    -158.0641     XY     -22.5786     YY     -92.7780
        XZ     -20.1256     YZ      -1.1760     ZZ     -85.6742

             Standard Nuclear Orientation (Angstroms)
    I     Atom           X                Y                Z
 ----------------------------------------------------------------
    1      C      -2.6158626764     0.3702193368    -1.0076411029
    2      H      -2.8948818871     1.1307089350    -0.2726376553
    3      H      -2.3506549015     0.8662256196    -1.9453375509
    4      H      -3.4666048186    -0.2923183482    -1.1805715615
    5      C      -1.4295422973    -0.4554090847    -0.5228888643
    6      C       0.8383073015    -0.0417239919     0.1890038944
    7      H       1.2212162722    -0.7935236769    -0.5099123416
    8      H       0.6676366364    -0.5355794206     1.1526019043
    9      C       1.8275332673     1.0978505196     0.3400909065
   10      H       1.4255694028     1.8502428371     1.0294732839
   11      H       1.9610368199     1.6043484949    -0.6225717684
   12      C       3.2167609446     0.6934568810     0.8561171311
   13      O      -1.8530284030    -0.9201176296     0.8608566100
   14      O      -1.0892859789    -1.4916866983    -1.2440949498
   15      H      -1.1515119730    -2.4095084778     0.0461382689
   16      O      -0.3825087934     0.5027405626    -0.2981347770
   17      O       4.0792282541     1.6115310260     0.8991492086
   18      O       3.4036139891    -0.5011228375     1.2024246922
   19      O      -1.4127076696    -2.2729743575     1.0151810450
 ----------------------------------------------------------------

 Frequency:        34.69                  57.48                  63.95
 Force Cnst:      0.0079                 0.0099                 0.0057
 Red. Mass:      11.1886                 5.1079                 2.3777
 IR Intens:        0.662                  5.120                  0.497
 Frequency:        87.79                 118.76                 162.06
 Force Cnst:      0.0322                 0.0532                 0.0562
 Red. Mass:       7.0901                 6.4018                 3.6291
 IR Intens:        4.186                  6.873                 21.945
 Frequency:       235.63                 242.90                 261.95
 Force Cnst:      0.1084                 0.0411                 0.2830
 Red. Mass:       3.3132                 1.1817                 6.9986
 IR Intens:       16.474                  3.006                  3.399
 Frequency:       330.34                 393.95                 407.45
 Force Cnst:      0.2195                 0.4047                 0.6090
 Red. Mass:       3.4146                 4.4261                 6.2257
 IR Intens:       26.509                  2.814                 45.010
 Frequency:       496.27                 509.12                 595.29
 Force Cnst:      1.0146                 0.7733                 0.4247
 Red. Mass:       6.9918                 5.0634                 2.0339
 IR Intens:        6.632                 27.350                  5.592
 Frequency:       625.15                 641.24                 683.78
 Force Cnst:      1.0171                 1.4256                 1.3858
 Red. Mass:       4.4173                 5.8847                 5.0307
 IR Intens:       81.173                 14.595                207.220
 Frequency:       712.20                 770.77                 822.81
 Force Cnst:      1.4654                 0.3866                 0.5854
 Red. Mass:       4.9035                 1.1044                 1.4676
 IR Intens:       96.089                101.522                  4.646
 Frequency:       857.64                 947.10                 983.33
 Force Cnst:      2.0404                 2.1026                 1.3252
 Red. Mass:       4.7082                 3.9785                 2.3262
 IR Intens:      212.813                  4.547                 71.733
 Frequency:      1026.64                1064.89                1092.37
 Force Cnst:      8.3532                 1.7748                 1.3555
 Red. Mass:      13.4514                 2.6564                 1.9280
 IR Intens:       11.453                279.575                 12.295
 Frequency:      1106.21                1120.59                1148.58
 Force Cnst:      2.5068                 2.0658                 2.1423
 Red. Mass:       3.4769                 2.7922                 2.7562
 IR Intens:      184.131                 45.430                288.906
 Frequency:      1225.46                1288.22                1301.02
 Force Cnst:      1.0689                 1.4806                 1.0973
 Red. Mass:       1.2080                 1.5143                 1.1003
 IR Intens:        2.629                 20.699                  0.084
 Frequency:      1333.84                1401.60                1412.72
 Force Cnst:      2.6831                 1.8462                 1.9390
 Red. Mass:       2.5596                 1.5951                 1.6490
 IR Intens:      310.517                108.069                 94.758
 Frequency:      1438.33                1459.11                1465.73
 Force Cnst:      5.2812                 1.6258                 1.3292
 Red. Mass:       4.3328                 1.2961                 1.0501
 IR Intens:      382.223                 34.306                 14.777
 Frequency:      1468.66                1516.92                1523.36
 Force Cnst:      1.3352                 1.4951                 1.8082
 Red. Mass:       1.0506                 1.1028                 1.3225
 IR Intens:        3.903                 21.229                248.146
 Frequency:      1584.78                2978.95                3048.86
 Force Cnst:     15.0865                 5.5694                 5.7848
 Red. Mass:      10.1953                 1.0652                 1.0562
 IR Intens:     1279.231                675.713                 43.437
 Frequency:      3055.09                3058.47                3083.15
 Force Cnst:      5.8343                 5.7070                 6.1765
 Red. Mass:       1.0609                 1.0355                 1.1028
 IR Intens:       61.499                 27.202                  8.001
 Frequency:      3104.32                3135.79                3148.37
 Force Cnst:      6.2761                 6.3907                 6.4466
 Red. Mass:       1.1054                 1.1031                 1.1039
 IR Intens:      100.320                 50.521                 42.330

 STANDARD THERMODYNAMIC QUANTITIES AT   298.15 K  AND     1.00 ATM

   This Molecule has  0 Imaginary Frequencies
   Zero point vibrational energy:       86.680 kcal/mol

   Atom    1 Element C  Has Mass   12.00000
   Atom    2 Element H  Has Mass    1.00783
   Atom    3 Element H  Has Mass    1.00783
   Atom    4 Element H  Has Mass    1.00783
   Atom    5 Element C  Has Mass   12.00000
   Atom    6 Element C  Has Mass   12.00000
   Atom    7 Element H  Has Mass    1.00783
   Atom    8 Element H  Has Mass    1.00783
   Atom    9 Element C  Has Mass   12.00000
   Atom   10 Element H  Has Mass    1.00783
   Atom   11 Element H  Has Mass    1.00783
   Atom   12 Element C  Has Mass   12.00000
   Atom   13 Element O  Has Mass   15.99491
   Atom   14 Element O  Has Mass   15.99491
   Atom   15 Element H  Has Mass    1.00783
   Atom   16 Element O  Has Mass   15.99491
   Atom   17 Element O  Has Mass   15.99491
   Atom   18 Element O  Has Mass   15.99491
   Atom   19 Element O  Has Mass   15.99491
   Molecular Mass:   164.032100 amu
   Principal axes and moments of inertia in amu*Bohr^2:
                             1           2           3
    Eigenvalues --      780.90935  3638.61663  4043.48069
          X               0.93319    -0.16457    -0.31948
          Y               0.29930     0.84799     0.43741
          Z               0.19893    -0.50381     0.84060
   Rotational Symmetry Number is   1
   The Molecule is an Asymmetric Top
   Translational Enthalpy:        0.889 kcal/mol
   Rotational Enthalpy:           0.889 kcal/mol
   Vibrational Enthalpy:         92.157 kcal/mol
   gas constant (RT):             0.592 kcal/mol
   Translational Entropy:        41.193  cal/mol.K
   Rotational Entropy:           30.819  cal/mol.K
   Vibrational Entropy:          36.816  cal/mol.K

   Total Enthalpy:               94.527 kcal/mol
   Total Entropy:               108.828  cal/mol.K

 Total job time:  46391.69s(wall), 655789.78s(cpu)
        *  Thank you very much for using Q-Chem.  Have a nice day.  *
