 Q-Chem 5.0, Q-Chem, Inc., Pleasanton, CA (2017)
 Q-Chem 5.0.2 for Intel X86 EM64T Linux

User input:
--------------------------------------------------------------
$molecule
-2 1
C       -2.5237682634    0.5754899536   -1.1210217930
H       -2.7032237109    1.4782995569   -0.5309244732
H       -2.1766731270    0.8655965720   -2.1161040086
H       -3.4553037950    0.0137041691   -1.2140733478
C       -1.4812477134   -0.2970435743   -0.4466614428
C        0.8068855115   -0.1182091768    0.2758534937
H        1.0784425244   -1.0462406355   -0.2376690994
H        0.5319856965   -0.3703627160    1.3054564525
C        1.9614106717    0.8635304391    0.2525618454
H        1.6664902417    1.7986097558    0.7423274825
H        2.2093873692    1.1232424470   -0.7833684203
C        3.2471838340    0.3632916503    0.9288779232
O       -1.9428158426   -0.5671102343    0.9087301814
O       -1.2824608705   -1.5007640790   -1.0397259727
H       -1.4062034348   -2.0877202148   -0.0798058029
O       -0.3018358724    0.4959503348   -0.3792452693
O        4.2092671417    1.1762610255    0.9549099004
O        3.2598950214   -0.8018940595    1.4019211878
O       -1.6974153806   -1.9646312094    1.1779611734
$end

$rem
jobtype               freq
method                wb97x-v
basis                 def2-tzvpd
symmetry              off
sym_ignore            true
unrestricted          false
incdft                false
incfock               0
!scf_algorithm        diis_gdm
scf_convergence       8
thresh                14
!purecart             112
max_scf_cycles        1000
geom_opt_max_cycles   900
geom_opt_dmax         100
geom_opt_tol_gradient 10
solvent_method        pcm
ideriv                1
rpath_tol_displacement 1000
rpath_max_cycles      100
rpath_direction       1
!scf_guess            read
scf_guess             read
$end

$pcm
theory              cosmo
method              iswig
Radii               bondi
vdwScale            1.20
hpoints             110
heavypoints         110
$end

$solvent
dielectric 78.400000
$end

--------------------------------------------------------------

   17    -646.9617318174      4.34E-09 Convergence criterion met
 Total energy in the final basis set = -646.96173182
   15    -646.9617308244      8.32E-09 Convergence criterion met
 Total energy in the final basis set = -646.96173082
   14    -646.9617308271      8.79E-09 Convergence criterion met
 Total energy in the final basis set = -646.96173083
   15    -646.9617308080      5.57E-09 Convergence criterion met
 Total energy in the final basis set = -646.96173081
   14    -646.9617308151      9.92E-09 Convergence criterion met
 Total energy in the final basis set = -646.96173082
   15    -646.9617308039      5.54E-09 Convergence criterion met
 Total energy in the final basis set = -646.96173080
   14    -646.9617307976      9.32E-09 Convergence criterion met
 Total energy in the final basis set = -646.96173080
   15    -646.9617317134      8.59E-09 Convergence criterion met
 Total energy in the final basis set = -646.96173160
   15    -646.9617316162      4.66E-09 Convergence criterion met
 Total energy in the final basis set = -646.96173162
   14    -646.9617317619      7.99E-09 Convergence criterion met
 Total energy in the final basis set = -646.96173176
   15    -646.9617317497      8.72E-09 Convergence criterion met
 Total energy in the final basis set = -646.96173175
   14    -646.9617312932      8.77E-09 Convergence criterion met
 Total energy in the final basis set = -646.96173129
   15    -646.9617313495      3.65E-09 Convergence criterion met
 Total energy in the final basis set = -646.96173135
   15    -646.9617315323      7.12E-09 Convergence criterion met
 Total energy in the final basis set = -646.96173153
   15    -646.9617315746      6.09E-09 Convergence criterion met
 Total energy in the final basis set = -646.96173157

                    Orbital Energies (a.u.)
 --------------------------------------------------------------

 Alpha MOs
 -- Occupied --
-19.223 -19.199 -19.176 -19.163 -19.141 -19.138 -10.386 -10.342
-10.291 -10.248 -10.245  -1.223  -1.145  -1.141  -1.085  -1.050
 -0.946  -0.878  -0.836  -0.743  -0.667  -0.633  -0.612  -0.587
 -0.576  -0.562  -0.528  -0.525  -0.510  -0.505  -0.487  -0.481
 -0.461  -0.451  -0.435  -0.426  -0.410  -0.384  -0.363  -0.347
 -0.341  -0.336  -0.331  -0.297

          Ground-State Mulliken Net Atomic Charges

     Atom                 Charge (a.u.)
  ----------------------------------------
      1 C                    -1.182342
      2 H                     0.234542
      3 H                     0.248553
      4 H                     0.248570
      5 C                     0.717893
      6 C                    -0.231605
      7 H                     0.181982
      8 H                     0.194034
      9 C                    -0.088700
     10 H                     0.236832
     11 H                     0.241877
     12 C                     0.041409
     13 O                    -0.253946
     14 O                    -0.675521
     15 H                     0.409056
     16 O                    -0.267269
     17 O                    -0.707900
     18 O                    -0.690436
     19 O                    -0.657029
  ----------------------------------------
  Sum of atomic charges =    -2.000000

                    Cartesian Multipole Moments
 -----------------------------------------------------------------
    Charge (ESU x 10^10)
                -9.6064
    Dipole Moment (Debye)
         X     -11.5714      Y       5.8548      Z      -8.3228
       Tot      15.4093
    Quadrupole Moments (Debye-Ang)
        XX    -161.0770     XY     -18.1837     YY     -90.5191
        XZ     -18.0964     YZ       5.1027     ZZ     -87.5624

             Standard Nuclear Orientation (Angstroms)
    I     Atom           X                Y                Z
 ----------------------------------------------------------------
    1      C      -2.5237682634     0.5754899536    -1.1210217930
    2      H      -2.7032237109     1.4782995569    -0.5309244732
    3      H      -2.1766731270     0.8655965720    -2.1161040086
    4      H      -3.4553037950     0.0137041691    -1.2140733478
    5      C      -1.4812477134    -0.2970435743    -0.4466614428
    6      C       0.8068855115    -0.1182091768     0.2758534937
    7      H       1.0784425244    -1.0462406355    -0.2376690994
    8      H       0.5319856965    -0.3703627160     1.3054564525
    9      C       1.9614106717     0.8635304391     0.2525618454
   10      H       1.6664902417     1.7986097558     0.7423274825
   11      H       2.2093873692     1.1232424470    -0.7833684203
   12      C       3.2471838340     0.3632916503     0.9288779232
   13      O      -1.9428158426    -0.5671102343     0.9087301814
   14      O      -1.2824608705    -1.5007640790    -1.0397259727
   15      H      -1.4062034348    -2.0877202148    -0.0798058029
   16      O      -0.3018358724     0.4959503348    -0.3792452693
   17      O       4.2092671417     1.1762610255     0.9549099004
   18      O       3.2598950214    -0.8018940595     1.4019211878
   19      O      -1.6974153806    -1.9646312094     1.1779611734
 ----------------------------------------------------------------

 Frequency:      -668.49                  38.82                  59.51
 Force Cnst:      0.3485                 0.0093                 0.0101
 Red. Mass:       1.3237                10.5099                 4.8363
 IR Intens:     1714.551                  1.259                  4.884
 Frequency:        68.05                  82.36                 124.09
 Force Cnst:      0.0061                 0.0302                 0.0677
 Red. Mass:       2.2405                 7.5532                 7.4633
 IR Intens:        0.010                  3.594                 14.207
 Frequency:       170.66                 232.36                 237.35
 Force Cnst:      0.0647                 0.0440                 0.0775
 Red. Mass:       3.7677                 1.3826                 2.3360
 IR Intens:       26.789                  5.739                  9.945
 Frequency:       264.70                 344.67                 397.05
 Force Cnst:      0.3225                 0.2350                 0.4059
 Red. Mass:       7.8135                 3.3578                 4.3699
 IR Intens:        0.674                  2.615                  7.172
 Frequency:       507.58                 508.99                 596.28
 Force Cnst:      0.7770                 1.0227                 0.4124
 Red. Mass:       5.1186                 6.7001                 1.9685
 IR Intens:       28.718                  3.410                  7.272
 Frequency:       634.65                 647.58                 709.90
 Force Cnst:      1.0151                 1.7795                 1.7051
 Red. Mass:       4.2773                 7.2019                 5.7423
 IR Intens:       15.642                 10.823                 36.261
 Frequency:       768.63                 819.69                 873.73
 Force Cnst:      3.8180                 0.5800                 2.5239
 Red. Mass:      10.9687                 1.4651                 5.6113
 IR Intens:       22.493                 10.525                144.035
 Frequency:       884.50                 948.47                 963.34
 Force Cnst:      1.5226                 2.0168                 1.0453
 Red. Mass:       3.3031                 3.8052                 1.9117
 IR Intens:      269.811                 11.670                 60.923
 Frequency:      1004.72                1069.40                1082.00
 Force Cnst:      3.9535                 1.2129                 1.3804
 Red. Mass:       6.6472                 1.8001                 2.0012
 IR Intens:       89.567                 55.981                303.082
 Frequency:      1090.51                1118.84                1142.76
 Force Cnst:      1.3756                 1.8933                 1.8809
 Red. Mass:       1.9633                 2.5671                 2.4446
 IR Intens:       22.771                 58.988                357.761
 Frequency:      1218.06                1224.52                1288.49
 Force Cnst:      2.6684                 1.0647                 1.4900
 Red. Mass:       3.0526                 1.2052                 1.5233
 IR Intens:      665.227                  2.280                 48.614
 Frequency:      1301.08                1340.03                1404.50
 Force Cnst:      1.1005                 2.6987                 1.8338
 Red. Mass:       1.1034                 2.5508                 1.5778
 IR Intens:        1.752                367.345                 30.738
 Frequency:      1418.85                1434.48                1460.28
 Force Cnst:      2.1353                 5.5004                 1.5905
 Red. Mass:       1.8002                 4.5369                 1.2660
 IR Intens:      116.216                363.079                 24.204
 Frequency:      1468.43                1471.21                1512.71
 Force Cnst:      1.3328                 1.3639                 1.4806
 Red. Mass:       1.0491                 1.0695                 1.0982
 IR Intens:        1.252                  6.565                 13.587
 Frequency:      1588.21                2075.52                3057.18
 Force Cnst:     15.3566                 2.6284                 5.8396
 Red. Mass:      10.3331                 1.0356                 1.0604
 IR Intens:     1283.514                190.990                  8.123
 Frequency:      3059.54                3063.60                3090.12
 Force Cnst:      5.8154                 5.7385                 6.2025
 Red. Mass:       1.0544                 1.0377                 1.1025
 IR Intens:       62.741                 47.665                  0.221
 Frequency:      3112.29                3142.47                3153.37
 Force Cnst:      6.3160                 6.4188                 6.4686
 Red. Mass:       1.1067                 1.1032                 1.1041
 IR Intens:       87.145                 35.387                 36.381

 STANDARD THERMODYNAMIC QUANTITIES AT   298.15 K  AND     1.00 ATM

   This Molecule has  1 Imaginary Frequencies
   Zero point vibrational energy:       84.739 kcal/mol

   Atom    1 Element C  Has Mass   12.00000
   Atom    2 Element H  Has Mass    1.00783
   Atom    3 Element H  Has Mass    1.00783
   Atom    4 Element H  Has Mass    1.00783
   Atom    5 Element C  Has Mass   12.00000
   Atom    6 Element C  Has Mass   12.00000
   Atom    7 Element H  Has Mass    1.00783
   Atom    8 Element H  Has Mass    1.00783
   Atom    9 Element C  Has Mass   12.00000
   Atom   10 Element H  Has Mass    1.00783
   Atom   11 Element H  Has Mass    1.00783
   Atom   12 Element C  Has Mass   12.00000
   Atom   13 Element O  Has Mass   15.99491
   Atom   14 Element O  Has Mass   15.99491
   Atom   15 Element H  Has Mass    1.00783
   Atom   16 Element O  Has Mass   15.99491
   Atom   17 Element O  Has Mass   15.99491
   Atom   18 Element O  Has Mass   15.99491
   Atom   19 Element O  Has Mass   15.99491
   Molecular Mass:   164.032100 amu
   Principal axes and moments of inertia in amu*Bohr^2:
                             1           2           3
    Eigenvalues --      768.50633  3614.47425  4023.12250
          X               0.95813    -0.04341    -0.28302
          Y               0.19931     0.81077     0.55038
          Z               0.20557    -0.58375     0.78548
   Rotational Symmetry Number is   1
   The Molecule is an Asymmetric Top
   Translational Enthalpy:        0.889 kcal/mol
   Rotational Enthalpy:           0.889 kcal/mol
   Vibrational Enthalpy:         89.960 kcal/mol
   gas constant (RT):             0.592 kcal/mol
   Translational Entropy:        41.193  cal/mol.K
   Rotational Entropy:           30.792  cal/mol.K
   Vibrational Entropy:          35.194  cal/mol.K

   Total Enthalpy:               92.330 kcal/mol
   Total Entropy:               107.178  cal/mol.K

 Total job time:  47779.13s(wall), 672079.40s(cpu)
        *  Thank you very much for using Q-Chem.  Have a nice day.  *
