 Q-Chem 5.0, Q-Chem, Inc., Pleasanton, CA (2017)
 Q-Chem 5.0.2 for Intel X86 EM64T Linux

User input:
--------------------------------------------------------------
$molecule
-2 1
C        0.0836230209    1.5004657437    0.0575421988
C       -1.1147476545    0.9441606664   -0.0790163163
H        0.2487028070    2.5516913576   -0.1617505245
H        0.9343655921    0.9130563018    0.3918181084
H       -1.9649929849    1.5341152035   -0.4147565670
C       -1.4121183484   -0.5121107931    0.2185803605
O       -2.6111805190   -0.8643999689    0.0886924615
O       -0.4616603313   -1.2601080022    0.5755824702
O        2.2896766554   -1.2551077570   -1.5618624577
O        2.2761974167   -1.4591127109   -0.1046137589
H        1.3353159340   -1.3295321853    0.1153148887
$end

$rem
jobtype               freq
method                wb97x-v
basis                 def2-tzvpd
symmetry              off
sym_ignore            true
incdft                false
incfock               0
!scf_algorithm        diis_gdm
scf_convergence       8
thresh                14
!purecart             112
max_scf_cycles        1000
geom_opt_max_cycles   500
geom_opt_dmax         100
geom_opt_tol_gradient 10
solvent_method        pcm
ideriv                1
rpath_tol_displacement 1000
rpath_max_cycles      100
rpath_direction       1
!scf_guess            read
scf_guess             read
$end

$pcm
theory              cosmo
method              iswig
Radii               bondi
vdwScale            1.20
hpoints             110
heavypoints         110
$end

$solvent
dielectric 78.400000
$end

--------------------------------------------------------------

   17    -417.8146016213      7.45E-09 Convergence criterion met
 Total energy in the final basis set = -417.81460162
   16    -417.8146002056      8.06E-09 Convergence criterion met
 Total energy in the final basis set = -417.81460021
   15    -417.8146001741      4.78E-09 Convergence criterion met
 Total energy in the final basis set = -417.81460017
   15    -417.8146004391      9.71E-09 Convergence criterion met
 Total energy in the final basis set = -417.81460044
   15    -417.8146004367      4.09E-09 Convergence criterion met
 Total energy in the final basis set = -417.81460044
   16    -417.8146013121      4.19E-09 Convergence criterion met
 Total energy in the final basis set = -417.81460131
   15    -417.8146013051      6.01E-09 Convergence criterion met
 Total energy in the final basis set = -417.81460131
   16    -417.8146001231      4.91E-09 Convergence criterion met
 Total energy in the final basis set = -417.81460101
   15    -417.8146011720      5.03E-09 Convergence criterion met
 Total energy in the final basis set = -417.81460117
   16    -417.8146008036      6.22E-09 Convergence criterion met
 Total energy in the final basis set = -417.81460080
   16    -417.8146008857      2.76E-09 Convergence criterion met
 Total energy in the final basis set = -417.81460089
   17    -417.8146015339      1.36E-09 Convergence criterion met
 Total energy in the final basis set = -417.81460153
   17    -417.8146016206      1.67E-09 Convergence criterion met
 Total energy in the final basis set = -417.81460162
   17    -417.8146014518      2.10E-09 Convergence criterion met
 Total energy in the final basis set = -417.81460145
   17    -417.8146014942      1.57E-09 Convergence criterion met
 Total energy in the final basis set = -417.81460149

                    Orbital Energies (a.u.)
 --------------------------------------------------------------

 Alpha MOs
 -- Occupied --
-19.184 -19.148 -19.147 -19.129 -10.350 -10.261 -10.260  -1.152
 -1.119  -1.058  -0.894  -0.867  -0.722  -0.615  -0.576  -0.553
 -0.524  -0.512  -0.499  -0.466  -0.445  -0.425  -0.367  -0.355
 -0.350  -0.341  -0.292  -0.265

          Ground-State Mulliken Net Atomic Charges

     Atom                 Charge (a.u.)
  ----------------------------------------
      1 C                    -0.739340
      2 C                    -0.028197
      3 H                     0.260926
      4 H                     0.231330
      5 H                     0.333990
      6 C                     0.337922
      7 O                    -0.686904
      8 O                    -0.717128
      9 O                    -0.874124
     10 O                    -0.399073
     11 H                     0.280596
  ----------------------------------------
  Sum of atomic charges =    -2.000000

                    Cartesian Multipole Moments
 -----------------------------------------------------------------
    Charge (ESU x 10^10)
                -9.6064
    Dipole Moment (Debye)
         X      -5.5496      Y      13.3499      Z       5.1292
       Tot      15.3403
    Quadrupole Moments (Debye-Ang)
        XX     -98.9899     XY       9.2447     YY     -63.0390
        XZ      17.1228     YZ      -6.5640     ZZ     -59.1560

             Standard Nuclear Orientation (Angstroms)
    I     Atom           X                Y                Z
 ----------------------------------------------------------------
    1      C       0.0836230209     1.5004657437     0.0575421988
    2      C      -1.1147476545     0.9441606664    -0.0790163163
    3      H       0.2487028070     2.5516913576    -0.1617505245
    4      H       0.9343655921     0.9130563018     0.3918181084
    5      H      -1.9649929849     1.5341152035    -0.4147565670
    6      C      -1.4121183484    -0.5121107931     0.2185803605
    7      O      -2.6111805190    -0.8643999689     0.0886924615
    8      O      -0.4616603313    -1.2601080022     0.5755824702
    9      O       2.2896766554    -1.2551077570    -1.5618624577
   10      O       2.2761974167    -1.4591127109    -0.1046137589
   11      H       1.3353159340    -1.3295321853     0.1153148887
 ----------------------------------------------------------------

 Frequency:        33.48                  71.27                 101.69
 Force Cnst:      0.0050                 0.0112                 0.0222
 Red. Mass:       7.5775                 3.7424                 3.6480
 IR Intens:        4.211                 16.226                 11.674
 Frequency:       116.60                 131.45                 189.10
 Force Cnst:      0.0875                 0.1165                 0.1460
 Red. Mass:      10.9208                11.4420                 6.9277
 IR Intens:       10.919                  3.185                 35.458
 Frequency:       294.89                 514.98                 534.44
 Force Cnst:      0.1917                 0.2698                 0.6448
 Red. Mass:       3.7421                 1.7270                 3.8316
 IR Intens:        0.804                  5.889                 14.554
 Frequency:       626.66                 664.61                 865.05
 Force Cnst:      0.3136                 0.5522                 1.8789
 Red. Mass:       1.3556                 2.1220                 4.2616
 IR Intens:       54.726                122.139                 48.259
 Frequency:       891.68                 929.34                1011.59
 Force Cnst:      1.9870                 7.8463                 0.7950
 Red. Mass:       4.2417                15.4195                 1.3186
 IR Intens:       49.947                 11.200                 71.944
 Frequency:      1044.67                1066.70                1297.09
 Force Cnst:      0.7339                 1.0424                 1.3396
 Red. Mass:       1.1414                 1.5549                 1.3514
 IR Intens:       20.380                 20.183                 20.406
 Frequency:      1364.73                1392.20                1449.10
 Force Cnst:      1.1924                 2.3841                 2.5924
 Red. Mass:       1.0867                 2.0877                 2.0954
 IR Intens:       53.330                159.228                285.037
 Frequency:      1593.22                1723.40                3152.12
 Force Cnst:     16.6943                 9.0610                 6.1981
 Red. Mass:      11.1626                 5.1779                 1.0588
 IR Intens:     1312.476                 41.302                 12.279
 Frequency:      3179.23                3243.80                3592.44
 Force Cnst:      6.5167                 6.9221                 8.1425
 Red. Mass:       1.0943                 1.1166                 1.0708
 IR Intens:       21.040                  5.851                802.563

 STANDARD THERMODYNAMIC QUANTITIES AT   298.15 K  AND     1.00 ATM

   This Molecule has  0 Imaginary Frequencies
   Zero point vibrational energy:       44.425 kcal/mol

   Atom    1 Element C  Has Mass   12.00000
   Atom    2 Element C  Has Mass   12.00000
   Atom    3 Element H  Has Mass    1.00783
   Atom    4 Element H  Has Mass    1.00783
   Atom    5 Element H  Has Mass    1.00783
   Atom    6 Element C  Has Mass   12.00000
   Atom    7 Element O  Has Mass   15.99491
   Atom    8 Element O  Has Mass   15.99491
   Atom    9 Element O  Has Mass   15.99491
   Atom   10 Element O  Has Mass   15.99491
   Atom   11 Element H  Has Mass    1.00783
   Molecular Mass:   104.010960 amu
   Principal axes and moments of inertia in amu*Bohr^2:
                             1           2           3
    Eigenvalues --      480.30522  1375.83021  1664.00363
          X               0.93974     0.24620     0.23721
          Y              -0.26004     0.96518     0.02843
          Z              -0.22195    -0.08840     0.97104
   Rotational Symmetry Number is   1
   The Molecule is an Asymmetric Top
   Translational Enthalpy:        0.889 kcal/mol
   Rotational Enthalpy:           0.889 kcal/mol
   Vibrational Enthalpy:         48.041 kcal/mol
   gas constant (RT):             0.592 kcal/mol
   Translational Entropy:        39.835  cal/mol.K
   Rotational Entropy:           28.488  cal/mol.K
   Vibrational Entropy:          25.632  cal/mol.K

   Total Enthalpy:               50.411 kcal/mol
   Total Entropy:                93.955  cal/mol.K

 Total job time:  6360.44s(wall), 88996.42s(cpu)
        *  Thank you very much for using Q-Chem.  Have a nice day.  *
