 Q-Chem 5.0, Q-Chem, Inc., Pleasanton, CA (2017)
 Q-Chem 5.0.2 for Intel X86 EM64T Linux

User input:
--------------------------------------------------------------
$molecule
-2 1
C        0.4530277633    1.0068478465   -0.1051540902
C       -0.8585537673    0.5803191725   -0.1333268044
H        0.7087700683    1.9436296757   -0.5964551415
H        1.0700343649    0.7629479129    0.7560676032
H       -1.5673577803    1.0412828313   -0.8184094001
C       -1.3177470019   -0.6007685898    0.6087157303
O       -2.5637187525   -0.8478720106    0.6695133891
O       -0.4393765490   -1.3584173040    1.1608319123
O        1.6497111067   -0.0082764295   -1.2018404475
O        1.8437350305   -1.2331167966   -0.4420982281
H        1.0214755173   -1.2865763084    0.1021554768
$end

$rem
jobtype               freq
method                wb97x-v
basis                 def2-tzvpd
symmetry              off
sym_ignore            true
incdft                false
incfock               0
!scf_algorithm        diis_gdm
scf_convergence       8
thresh                14
!purecart             112
max_scf_cycles        1000
geom_opt_max_cycles   500
geom_opt_dmax         100
geom_opt_tol_gradient 10
solvent_method        pcm
ideriv                1
rpath_tol_displacement 1000
rpath_max_cycles      100
rpath_direction       1
!scf_guess            read
scf_guess             read
$end

$pcm
theory              cosmo
method              iswig
Radii               bondi
vdwScale            1.20
hpoints             110
heavypoints         110
$end

$solvent
dielectric 78.400000
$end

--------------------------------------------------------------

   17    -417.7900250676      9.81E-09 Convergence criterion met
 Total energy in the final basis set = -417.79002507
   16    -417.7900241721      9.22E-09 Convergence criterion met
 Total energy in the final basis set = -417.79002417
   15    -417.7900241393      9.75E-09 Convergence criterion met
 Total energy in the final basis set = -417.79002414
   16    -417.7900242167      3.77E-09 Convergence criterion met
 Total energy in the final basis set = -417.79002422
   16    -417.7900242397      2.19E-09 Convergence criterion met
 Total energy in the final basis set = -417.79002424
   16    -417.7900243054      2.40E-09 Convergence criterion met
 Total energy in the final basis set = -417.79002431
   15    -417.7900243784      9.37E-09 Convergence criterion met
 Total energy in the final basis set = -417.79002438
   16    -417.7900238475      2.05E-09 Convergence criterion met
 Total energy in the final basis set = -417.79002468
   16    -417.7900246519      3.62E-09 Convergence criterion met
 Total energy in the final basis set = -417.79002465
   16    -417.7900245206      5.57E-09 Convergence criterion met
 Total energy in the final basis set = -417.79002452
   16    -417.7900245643      6.27E-09 Convergence criterion met
 Total energy in the final basis set = -417.79002456
   16    -417.7900249386      8.50E-09 Convergence criterion met
 Total energy in the final basis set = -417.79002494
   17    -417.7900249672      1.05E-09 Convergence criterion met
 Total energy in the final basis set = -417.79002497
   17    -417.7900248465      1.02E-09 Convergence criterion met
 Total energy in the final basis set = -417.79002485
   17    -417.7900247918      9.70E-10 Convergence criterion met
 Total energy in the final basis set = -417.79002479

                    Orbital Energies (a.u.)
 --------------------------------------------------------------

 Alpha MOs
 -- Occupied --
-19.198 -19.165 -19.128 -19.125 -10.326 -10.272 -10.199  -1.149
 -1.124  -1.029  -0.906  -0.851  -0.708  -0.590  -0.570  -0.543
 -0.516  -0.485  -0.483  -0.461  -0.453  -0.428  -0.381  -0.338
 -0.333  -0.319  -0.287  -0.249

          Ground-State Mulliken Net Atomic Charges

     Atom                 Charge (a.u.)
  ----------------------------------------
      1 C                    -0.587190
      2 C                    -0.274907
      3 H                     0.204137
      4 H                     0.233842
      5 H                     0.290719
      6 C                     0.376690
      7 O                    -0.748490
      8 O                    -0.790847
      9 O                    -0.556755
     10 O                    -0.451209
     11 H                     0.304011
  ----------------------------------------
  Sum of atomic charges =    -2.000000

                    Cartesian Multipole Moments
 -----------------------------------------------------------------
    Charge (ESU x 10^10)
                -9.6064
    Dipole Moment (Debye)
         X       2.6923      Y       7.8921      Z      -0.9042
       Tot       8.3876
    Quadrupole Moments (Debye-Ang)
        XX     -86.5941     XY      -3.2453     YY     -58.3109
        XZ      15.7433     YZ       4.7795     ZZ     -58.9848

             Standard Nuclear Orientation (Angstroms)
    I     Atom           X                Y                Z
 ----------------------------------------------------------------
    1      C       0.4530277633     1.0068478465    -0.1051540902
    2      C      -0.8585537673     0.5803191725    -0.1333268044
    3      H       0.7087700683     1.9436296757    -0.5964551415
    4      H       1.0700343649     0.7629479129     0.7560676032
    5      H      -1.5673577803     1.0412828313    -0.8184094001
    6      C      -1.3177470019    -0.6007685898     0.6087157303
    7      O      -2.5637187525    -0.8478720106     0.6695133891
    8      O      -0.4393765490    -1.3584173040     1.1608319123
    9      O       1.6497111067    -0.0082764295    -1.2018404475
   10      O       1.8437350305    -1.2331167966    -0.4420982281
   11      H       1.0214755173    -1.2865763084     0.1021554768
 ----------------------------------------------------------------

 Frequency:      -396.13                  58.92                  97.02
 Force Cnst:      1.0412                 0.0228                 0.0597
 Red. Mass:      11.2613                11.1263                10.7626
 IR Intens:     1140.905                  1.260                  5.229
 Frequency:       182.65                 260.73                 366.61
 Force Cnst:      0.1968                 0.2604                 0.2310
 Red. Mass:      10.0128                 6.5010                 2.9171
 IR Intens:       62.643                 21.046                 37.456
 Frequency:       398.69                 553.07                 649.18
 Force Cnst:      0.4472                 0.5949                 0.4956
 Red. Mass:       4.7748                 3.3010                 1.9958
 IR Intens:        7.742                 19.215                 46.182
 Frequency:       664.43                 686.21                 825.58
 Force Cnst:      0.5163                 0.3113                 3.5169
 Red. Mass:       1.9849                 1.1222                 8.7578
 IR Intens:       72.883                 97.593                109.801
 Frequency:       896.25                 956.18                1016.89
 Force Cnst:      1.4112                 4.1465                 1.1394
 Red. Mass:       2.9817                 7.6976                 1.8702
 IR Intens:       21.302                  6.226                 62.368
 Frequency:      1106.96                1123.36                1259.75
 Force Cnst:      0.8878                 0.8898                 1.3003
 Red. Mass:       1.2297                 1.1968                 1.3906
 IR Intens:       12.497                299.390                121.587
 Frequency:      1349.73                1406.07                1482.43
 Force Cnst:      2.7695                 3.0783                 5.2249
 Red. Mass:       2.5802                 2.6427                 4.0353
 IR Intens:      245.957                464.660                908.367
 Frequency:      1493.27                1544.03                3123.24
 Force Cnst:      1.4805                 3.8732                 6.0809
 Red. Mass:       1.1269                 2.7575                 1.0581
 IR Intens:      131.408                851.465                 82.374
 Frequency:      3156.67                3205.51                3353.15
 Force Cnst:      6.3981                 6.7559                 7.1166
 Red. Mass:       1.0898                 1.1159                 1.0743
 IR Intens:       34.092                 43.370                817.228

 STANDARD THERMODYNAMIC QUANTITIES AT   298.15 K  AND     1.00 ATM

   This Molecule has  1 Imaginary Frequencies
   Zero point vibrational energy:       44.626 kcal/mol

   Atom    1 Element C  Has Mass   12.00000
   Atom    2 Element C  Has Mass   12.00000
   Atom    3 Element H  Has Mass    1.00783
   Atom    4 Element H  Has Mass    1.00783
   Atom    5 Element H  Has Mass    1.00783
   Atom    6 Element C  Has Mass   12.00000
   Atom    7 Element O  Has Mass   15.99491
   Atom    8 Element O  Has Mass   15.99491
   Atom    9 Element O  Has Mass   15.99491
   Atom   10 Element O  Has Mass   15.99491
   Atom   11 Element H  Has Mass    1.00783
   Molecular Mass:   104.010960 amu
   Principal axes and moments of inertia in amu*Bohr^2:
                             1           2           3
    Eigenvalues --      359.69547  1054.94934  1299.90768
          X               0.91852    -0.24053     0.31380
          Y               0.10982     0.91764     0.38193
          Z              -0.37982    -0.31635     0.86929
   Rotational Symmetry Number is   1
   The Molecule is an Asymmetric Top
   Translational Enthalpy:        0.889 kcal/mol
   Rotational Enthalpy:           0.889 kcal/mol
   Vibrational Enthalpy:         47.221 kcal/mol
   gas constant (RT):             0.592 kcal/mol
   Translational Entropy:        39.835  cal/mol.K
   Rotational Entropy:           27.691  cal/mol.K
   Vibrational Entropy:          16.362  cal/mol.K

   Total Enthalpy:               49.591 kcal/mol
   Total Entropy:                83.888  cal/mol.K

 Total job time:  21410.47s(wall), 82687.39s(cpu)
        *  Thank you very much for using Q-Chem.  Have a nice day.  *
