 Q-Chem 5.0, Q-Chem, Inc., Pleasanton, CA (2017)
 Q-Chem 5.0.2 for Intel X86 EM64T Linux

User input:
--------------------------------------------------------------
$molecule
-2 1
C       -2.6988028888   -0.2670301482   -0.6445361871
H       -2.7168413314    0.7316406188   -0.2023403780
H       -2.9045773228   -0.1928913652   -1.7153722006
H       -3.4791206402   -0.8759225570   -0.1782584241
C       -1.3499866765   -0.9582737116   -0.4411735824
C        0.7310962069    1.3687738479    0.5320681103
H        0.3804278044    0.9018828608    1.4566227684
H        0.7920408396    2.4516248371    0.6852387825
C        2.0899000627    0.8146746958    0.1427549473
H        2.8316072056    1.2555389504    0.8223615485
H        2.3560155733    1.1310406242   -0.8696306205
C        2.2605000739   -0.7070385298    0.2648178294
O       -0.2691382764   -0.0738413525   -1.0257208040
O       -1.1133580734   -0.9854668546    0.9716954969
H       -0.1602969329   -1.1913048827    1.0807543356
O       -1.1881231628   -2.0984283330   -1.0480191441
O        3.0436669913   -1.2575657260   -0.5463199577
O        1.6551748963   -1.2975408237    1.2059780147
O       -0.2616659210    1.2532890317   -0.4915404641
$end

$rem
jobtype               freq
method                wb97x-v
basis                 def2-tzvpd
symmetry              off
sym_ignore            true
incdft                false
incfock               0
!scf_algorithm        diis_gdm
scf_convergence       8
thresh                14
!purecart             112
max_scf_cycles        1000
geom_opt_max_cycles   500
geom_opt_dmax         100
geom_opt_tol_gradient 10
solvent_method        pcm
ideriv                1
rpath_tol_displacement 1000
rpath_max_cycles      100
rpath_direction       1
!scf_guess            read
scf_guess             read
$end

$pcm
theory              cosmo
method              iswig
Radii               bondi
vdwScale            1.20
hpoints             110
heavypoints         110
$end

$solvent
dielectric 78.400000
$end

--------------------------------------------------------------

   17    -646.9711250836      7.77E-09 Convergence criterion met
 Total energy in the final basis set = -646.97112508
   16    -646.9711241586      7.58E-09 Convergence criterion met
 Total energy in the final basis set = -646.97112416
   15    -646.9711242379      4.36E-09 Convergence criterion met
 Total energy in the final basis set = -646.97112424
   16    -646.9711240169      3.39E-09 Convergence criterion met
 Total energy in the final basis set = -646.97112402
   15    -646.9711241119      4.34E-09 Convergence criterion met
 Total energy in the final basis set = -646.97112411
   16    -646.9711240338      3.87E-09 Convergence criterion met
 Total energy in the final basis set = -646.97112403
   15    -646.9711240185      4.23E-09 Convergence criterion met
 Total energy in the final basis set = -646.97112402
   16    -646.9711249990      9.00E-09 Convergence criterion met
 Total energy in the final basis set = -646.97112447
   15    -646.9711244480      5.31E-09 Convergence criterion met
 Total energy in the final basis set = -646.97112445
   16    -646.9711245311      2.14E-09 Convergence criterion met
 Total energy in the final basis set = -646.97112453
   16    -646.9711248209      2.30E-09 Convergence criterion met
 Total energy in the final basis set = -646.97112482
   16    -646.9711244410      2.97E-09 Convergence criterion met
 Total energy in the final basis set = -646.97112444
   15    -646.9711245779      4.77E-09 Convergence criterion met
 Total energy in the final basis set = -646.97112458
   15    -646.9711246552      8.97E-09 Convergence criterion met
 Total energy in the final basis set = -646.97112466
   15    -646.9711246557      7.30E-09 Convergence criterion met
 Total energy in the final basis set = -646.97112466

                    Orbital Energies (a.u.)
 --------------------------------------------------------------

 Alpha MOs
 -- Occupied --
-19.244 -19.227 -19.172 -19.144 -19.143 -19.106 -10.367 -10.346
-10.297 -10.250 -10.232  -1.227  -1.148  -1.135  -1.055  -1.046
 -0.988  -0.868  -0.832  -0.741  -0.668  -0.618  -0.611  -0.589
 -0.574  -0.541  -0.529  -0.522  -0.517  -0.514  -0.482  -0.471
 -0.464  -0.457  -0.446  -0.428  -0.400  -0.367  -0.352  -0.344
 -0.341  -0.333  -0.320  -0.308

          Ground-State Mulliken Net Atomic Charges

     Atom                 Charge (a.u.)
  ----------------------------------------
      1 C                    -1.022467
      2 H                     0.185464
      3 H                     0.226343
      4 H                     0.250818
      5 C                     0.765368
      6 C                    -0.217852
      7 H                     0.151743
      8 H                     0.244903
      9 C                    -0.108291
     10 H                     0.241609
     11 H                     0.153280
     12 C                     0.337784
     13 O                    -0.249569
     14 O                    -0.586528
     15 H                     0.320878
     16 O                    -0.885007
     17 O                    -0.719643
     18 O                    -0.774438
     19 O                    -0.314395
  ----------------------------------------
  Sum of atomic charges =    -2.000000

                    Cartesian Multipole Moments
 -----------------------------------------------------------------
    Charge (ESU x 10^10)
                -9.6064
    Dipole Moment (Debye)
         X      -4.1393      Y      15.6354      Z       3.8701
       Tot      16.6305
    Quadrupole Moments (Debye-Ang)
        XX    -105.6725     XY       9.6724     YY    -100.5916
        XZ       0.3945     YZ      -3.3355     ZZ     -85.0194

             Standard Nuclear Orientation (Angstroms)
    I     Atom           X                Y                Z
 ----------------------------------------------------------------
    1      C      -2.6988028888    -0.2670301482    -0.6445361871
    2      H      -2.7168413314     0.7316406188    -0.2023403780
    3      H      -2.9045773228    -0.1928913652    -1.7153722006
    4      H      -3.4791206402    -0.8759225570    -0.1782584241
    5      C      -1.3499866765    -0.9582737116    -0.4411735824
    6      C       0.7310962069     1.3687738479     0.5320681103
    7      H       0.3804278044     0.9018828608     1.4566227684
    8      H       0.7920408396     2.4516248371     0.6852387825
    9      C       2.0899000627     0.8146746958     0.1427549473
   10      H       2.8316072056     1.2555389504     0.8223615485
   11      H       2.3560155733     1.1310406242    -0.8696306205
   12      C       2.2605000739    -0.7070385298     0.2648178294
   13      O      -0.2691382764    -0.0738413525    -1.0257208040
   14      O      -1.1133580734    -0.9854668546     0.9716954969
   15      H      -0.1602969329    -1.1913048827     1.0807543356
   16      O      -1.1881231628    -2.0984283330    -1.0480191441
   17      O       3.0436669913    -1.2575657260    -0.5463199577
   18      O       1.6551748963    -1.2975408237     1.2059780147
   19      O      -0.2616659210     1.2532890317    -0.4915404641
 ----------------------------------------------------------------

 Frequency:        66.95                  97.22                 113.34
 Force Cnst:      0.0288                 0.0252                 0.0574
 Red. Mass:      10.8960                 4.5205                 7.5822
 IR Intens:        0.633                  5.199                  1.698
 Frequency:       140.88                 172.82                 217.96
 Force Cnst:      0.0619                 0.1155                 0.0337
 Red. Mass:       5.2901                 6.5644                 1.2048
 IR Intens:        8.821                 31.405                  4.900
 Frequency:       238.01                 281.84                 323.25
 Force Cnst:      0.0974                 0.2662                 0.1737
 Red. Mass:       2.9175                 5.6870                 2.8209
 IR Intens:        8.037                 25.697                 32.845
 Frequency:       379.01                 397.58                 437.77
 Force Cnst:      0.3414                 0.3039                 0.4152
 Red. Mass:       4.0343                 3.2626                 3.6773
 IR Intens:        3.010                  7.037                  9.717
 Frequency:       498.93                 566.88                 583.23
 Force Cnst:      0.8997                 0.6944                 0.7554
 Red. Mass:       6.1347                 3.6679                 3.7691
 IR Intens:       24.985                 33.195                  9.120
 Frequency:       594.84                 612.08                 685.46
 Force Cnst:      0.7130                 0.8170                 0.8140
 Red. Mass:       3.4200                 3.7013                 2.9404
 IR Intens:       29.517                  8.788                 54.876
 Frequency:       712.04                 742.73                 832.84
 Force Cnst:      0.5317                 1.0021                 1.6635
 Red. Mass:       1.7800                 3.0832                 4.0704
 IR Intens:       53.982                395.304                 56.305
 Frequency:       860.05                 917.12                 946.50
 Force Cnst:      1.5768                 2.1564                 1.7447
 Red. Mass:       3.6180                 4.3514                 3.3055
 IR Intens:       74.708                 19.452                 62.434
 Frequency:       973.39                1032.58                1063.38
 Force Cnst:      1.3372                 1.4284                 1.3496
 Red. Mass:       2.3954                 2.2739                 2.0257
 IR Intens:      123.695                 24.556                171.057
 Frequency:      1072.30                1104.21                1134.67
 Force Cnst:      1.5357                 2.1020                 1.8766
 Red. Mass:       2.2669                 2.9260                 2.4740
 IR Intens:       11.249                 27.715                291.757
 Frequency:      1218.08                1286.73                1306.45
 Force Cnst:      1.0653                 1.2080                 2.9134
 Red. Mass:       1.2186                 1.2383                 2.8971
 IR Intens:       22.732                  4.313                453.128
 Frequency:      1338.01                1369.54                1402.99
 Force Cnst:      1.7042                 1.3743                 1.6992
 Red. Mass:       1.6156                 1.2436                 1.4652
 IR Intens:       69.712                 38.570                 34.499
 Frequency:      1438.04                1439.17                1450.05
 Force Cnst:      1.4125                 5.4417                 2.3044
 Red. Mass:       1.1593                 4.4593                 1.8601
 IR Intens:       19.391                355.974                316.723
 Frequency:      1465.20                1474.36                1485.14
 Force Cnst:      1.3475                 1.3767                 1.4404
 Red. Mass:       1.0653                 1.0749                 1.1084
 IR Intens:        5.024                 14.211                  7.376
 Frequency:      1588.15                3051.48                3058.71
 Force Cnst:     14.0932                 5.8445                 5.7077
 Red. Mass:       9.4837                 1.0653                 1.0355
 IR Intens:     1271.766                 18.384                 29.418
 Frequency:      3071.66                3112.72                3123.48
 Force Cnst:      5.8894                 6.2818                 6.3372
 Red. Mass:       1.0594                 1.1004                 1.1025
 IR Intens:       73.019                  6.654                 62.904
 Frequency:      3134.10                3145.85                3489.35
 Force Cnst:      6.3802                 6.4348                 7.6696
 Red. Mass:       1.1025                 1.1036                 1.0691
 IR Intens:       47.882                 47.589                888.789

 STANDARD THERMODYNAMIC QUANTITIES AT   298.15 K  AND     1.00 ATM

   This Molecule has  0 Imaginary Frequencies
   Zero point vibrational energy:       87.560 kcal/mol

   Atom    1 Element C  Has Mass   12.00000
   Atom    2 Element H  Has Mass    1.00783
   Atom    3 Element H  Has Mass    1.00783
   Atom    4 Element H  Has Mass    1.00783
   Atom    5 Element C  Has Mass   12.00000
   Atom    6 Element C  Has Mass   12.00000
   Atom    7 Element H  Has Mass    1.00783
   Atom    8 Element H  Has Mass    1.00783
   Atom    9 Element C  Has Mass   12.00000
   Atom   10 Element H  Has Mass    1.00783
   Atom   11 Element H  Has Mass    1.00783
   Atom   12 Element C  Has Mass   12.00000
   Atom   13 Element O  Has Mass   15.99491
   Atom   14 Element O  Has Mass   15.99491
   Atom   15 Element H  Has Mass    1.00783
   Atom   16 Element O  Has Mass   15.99491
   Atom   17 Element O  Has Mass   15.99491
   Atom   18 Element O  Has Mass   15.99491
   Atom   19 Element O  Has Mass   15.99491
   Molecular Mass:   164.032100 amu
   Principal axes and moments of inertia in amu*Bohr^2:
                             1           2           3
    Eigenvalues --     1022.00459  2144.36297  2536.51421
          X               0.98380    -0.07380    -0.16337
          Y               0.06757     0.99677    -0.04337
          Z               0.16604     0.03162     0.98561
   Rotational Symmetry Number is   1
   The Molecule is an Asymmetric Top
   Translational Enthalpy:        0.889 kcal/mol
   Rotational Enthalpy:           0.889 kcal/mol
   Vibrational Enthalpy:         92.593 kcal/mol
   gas constant (RT):             0.592 kcal/mol
   Translational Entropy:        41.193  cal/mol.K
   Rotational Entropy:           30.098  cal/mol.K
   Vibrational Entropy:          30.313  cal/mol.K

   Total Enthalpy:               94.963 kcal/mol
   Total Entropy:               101.603  cal/mol.K

 Total job time:  54816.34s(wall), 777993.20s(cpu)
        *  Thank you very much for using Q-Chem.  Have a nice day.  *
