 Q-Chem 5.0, Q-Chem, Inc., Pleasanton, CA (2017)
 Q-Chem 5.0.2 for Intel X86 EM64T Linux

User input:
--------------------------------------------------------------
$molecule
-2 1
C        0.2032994775    0.5091934175    0.3966634910
C       -0.2299114598    1.4301480855   -0.6337608820
O       -0.3567941017    1.0310301277   -1.8528103476
O       -0.5461671548    2.6384526641   -0.3023482803
C        0.8948717709   -0.7509513113    0.0563660911
H        0.5065190865    0.9761323874    1.3382118739
H        0.4034067235   -1.2523291118   -0.7870046249
H        0.9021399098   -1.4449341428    0.9095504837
O        2.3126189565   -0.5573233096   -0.3289476976
H       -1.4734507982   -0.1282009675    0.7645010065
O       -2.4023722771   -0.5044790746    0.9752959990
H       -2.8695758997   -0.4953931244    0.1323745293
H        2.6807680362   -1.4279435929   -0.5259731962
$end

$rem
jobtype               freq
method                wb97x-v
basis                 def2-tzvpd
symmetry              off
sym_ignore            true
incdft                false
incfock               0
!scf_algorithm        diis_gdm
scf_convergence       8
thresh                14
!purecart             112
max_scf_cycles        1000
geom_opt_max_cycles   500
geom_opt_dmax         100
geom_opt_tol_gradient 10
solvent_method        pcm
ideriv                1
rpath_tol_displacement 1000
rpath_max_cycles      100
rpath_direction       1
!scf_guess            read
scf_guess             read
$end

$pcm
theory              cosmo
method              iswig
Radii               bondi
vdwScale            1.20
hpoints             110
heavypoints         110
$end

$solvent
dielectric 78.400000
$end

--------------------------------------------------------------

   17    -419.1028284935      8.64E-09 Convergence criterion met
 Total energy in the final basis set = -419.10282849
   17    -419.1028281249      1.18E-09 Convergence criterion met
 Total energy in the final basis set = -419.10282812
   15    -419.1028280449      9.08E-09 Convergence criterion met
 Total energy in the final basis set = -419.10282804
   16    -419.1028276091      5.01E-09 Convergence criterion met
 Total energy in the final basis set = -419.10282761
   15    -419.1028275729      6.67E-09 Convergence criterion met
 Total energy in the final basis set = -419.10282757
   16    -419.1028274489      2.66E-09 Convergence criterion met
 Total energy in the final basis set = -419.10282745
   15    -419.1028275782      6.47E-09 Convergence criterion met
 Total energy in the final basis set = -419.10282758
   16    -419.1028279178      4.67E-09 Convergence criterion met
 Total energy in the final basis set = -419.10282773
   17    -419.1028278014      1.09E-09 Convergence criterion met
 Total energy in the final basis set = -419.10282780
   17    -419.1028282758      2.07E-09 Convergence criterion met
 Total energy in the final basis set = -419.10282828
   17    -419.1028282924      1.59E-09 Convergence criterion met
 Total energy in the final basis set = -419.10282829
   17    -419.1028277101      2.74E-09 Convergence criterion met
 Total energy in the final basis set = -419.10282771
   17    -419.1028277484      1.15E-09 Convergence criterion met
 Total energy in the final basis set = -419.10282775
   17    -419.1028284327      1.23E-09 Convergence criterion met
 Total energy in the final basis set = -419.10282843
   17    -419.1028284606      2.88E-09 Convergence criterion met
 Total energy in the final basis set = -419.10282846

                    Orbital Energies (a.u.)
 --------------------------------------------------------------

 Alpha MOs
 -- Occupied --
-19.183 -19.174 -19.107 -19.106 -10.305 -10.278 -10.174  -1.109
 -1.098  -1.090  -1.001  -0.831  -0.705  -0.600  -0.583  -0.567
 -0.535  -0.497  -0.484  -0.471  -0.455  -0.446  -0.409  -0.395
 -0.360  -0.319  -0.317  -0.296  -0.239

          Ground-State Mulliken Net Atomic Charges

     Atom                 Charge (a.u.)
  ----------------------------------------
      1 C                    -0.561121
      2 C                     0.249952
      3 O                    -0.786302
      4 O                    -0.816881
      5 C                    -0.091047
      6 H                     0.209164
      7 H                     0.129231
      8 H                     0.186532
      9 O                    -0.531922
     10 H                     0.148126
     11 O                    -0.795570
     12 H                     0.341588
     13 H                     0.318249
  ----------------------------------------
  Sum of atomic charges =    -2.000000

                    Cartesian Multipole Moments
 -----------------------------------------------------------------
    Charge (ESU x 10^10)
                -9.6064
    Dipole Moment (Debye)
         X       3.6693      Y     -13.6800      Z       3.9886
       Tot      14.7144
    Quadrupole Moments (Debye-Ang)
        XX     -62.7269     XY       1.4146     YY     -78.1121
        XZ       5.0033     YZ      11.7074     ZZ     -67.5313

             Standard Nuclear Orientation (Angstroms)
    I     Atom           X                Y                Z
 ----------------------------------------------------------------
    1      C       0.2032994775     0.5091934175     0.3966634910
    2      C      -0.2299114598     1.4301480855    -0.6337608820
    3      O      -0.3567941017     1.0310301277    -1.8528103476
    4      O      -0.5461671548     2.6384526641    -0.3023482803
    5      C       0.8948717709    -0.7509513113     0.0563660911
    6      H       0.5065190865     0.9761323874     1.3382118739
    7      H       0.4034067235    -1.2523291118    -0.7870046249
    8      H       0.9021399098    -1.4449341428     0.9095504837
    9      O       2.3126189565    -0.5573233096    -0.3289476976
   10      H      -1.4734507982    -0.1282009675     0.7645010065
   11      O      -2.4023722771    -0.5044790746     0.9752959990
   12      H      -2.8695758997    -0.4953931244     0.1323745293
   13      H       2.6807680362    -1.4279435929    -0.5259731962
 ----------------------------------------------------------------

 Frequency:        62.87                  67.39                 108.04
 Force Cnst:      0.0139                 0.0155                 0.0554
 Red. Mass:       5.9779                 5.7822                 8.0600
 IR Intens:        8.973                  3.533                 14.977
 Frequency:       123.08                 127.83                 201.37
 Force Cnst:      0.0384                 0.0112                 0.1353
 Red. Mass:       4.3068                 1.1629                 5.6641
 IR Intens:        3.238                169.628                117.829
 Frequency:       244.38                 304.65                 458.71
 Force Cnst:      0.0406                 0.1391                 0.4135
 Red. Mass:       1.1532                 2.5433                 3.3356
 IR Intens:      178.896                  3.511                 13.355
 Frequency:       508.07                 568.24                 624.76
 Force Cnst:      0.1984                 0.7975                 0.3137
 Red. Mass:       1.3043                 4.1919                 1.3641
 IR Intens:      255.709                 89.902                161.791
 Frequency:       677.27                 826.69                 856.76
 Force Cnst:      0.7765                 4.3945                 2.6101
 Red. Mass:       2.8733                10.9138                 6.0352
 IR Intens:      109.139                 94.332                314.768
 Frequency:       890.43                 975.28                1044.72
 Force Cnst:      1.4305                 0.5965                 1.3631
 Red. Mass:       3.0623                 1.0643                 2.1198
 IR Intens:       80.594                 29.426                 33.755
 Frequency:      1117.09                1216.26                1258.44
 Force Cnst:      1.2480                 1.0871                 1.4883
 Red. Mass:       1.6974                 1.2473                 1.5951
 IR Intens:      165.719                118.194                119.369
 Frequency:      1298.31                1394.82                1408.97
 Force Cnst:      1.7016                 3.5249                 2.1125
 Red. Mass:       1.7133                 3.0751                 1.8061
 IR Intens:      553.378                612.926                388.478
 Frequency:      1434.82                1479.31                1640.33
 Force Cnst:      3.2866                 1.5281                 1.6978
 Red. Mass:       2.7096                 1.1852                 1.0709
 IR Intens:      909.158                 16.977                 73.521
 Frequency:      2600.11                3000.19                3053.75
 Force Cnst:      4.3338                 5.6417                 6.0283
 Red. Mass:       1.0880                 1.0638                 1.0972
 IR Intens:     3845.758                179.110                 65.820
 Frequency:      3088.98                3809.59                3859.83
 Force Cnst:      6.1058                 9.1159                 9.3493
 Red. Mass:       1.0861                 1.0661                 1.0651
 IR Intens:      143.029                 10.416                 51.967

 STANDARD THERMODYNAMIC QUANTITIES AT   298.15 K  AND     1.00 ATM

   This Molecule has  0 Imaginary Frequencies
   Zero point vibrational energy:       57.657 kcal/mol

   Atom    1 Element C  Has Mass   12.00000
   Atom    2 Element C  Has Mass   12.00000
   Atom    3 Element O  Has Mass   15.99491
   Atom    4 Element O  Has Mass   15.99491
   Atom    5 Element C  Has Mass   12.00000
   Atom    6 Element H  Has Mass    1.00783
   Atom    7 Element H  Has Mass    1.00783
   Atom    8 Element H  Has Mass    1.00783
   Atom    9 Element O  Has Mass   15.99491
   Atom   10 Element H  Has Mass    1.00783
   Atom   11 Element O  Has Mass   15.99491
   Atom   12 Element H  Has Mass    1.00783
   Atom   13 Element H  Has Mass    1.00783
   Molecular Mass:   106.026620 amu
   Principal axes and moments of inertia in amu*Bohr^2:
                             1           2           3
    Eigenvalues --      746.99518   999.60221  1437.28015
          X               0.90888     0.30127     0.28839
          Y              -0.40597     0.79745     0.44639
          Z              -0.09550    -0.52280     0.84709
   Rotational Symmetry Number is   1
   The Molecule is an Asymmetric Top
   Translational Enthalpy:        0.889 kcal/mol
   Rotational Enthalpy:           0.889 kcal/mol
   Vibrational Enthalpy:         61.701 kcal/mol
   gas constant (RT):             0.592 kcal/mol
   Translational Entropy:        39.892  cal/mol.K
   Rotational Entropy:           28.464  cal/mol.K
   Vibrational Entropy:          26.774  cal/mol.K

   Total Enthalpy:               64.071 kcal/mol
   Total Entropy:                95.130  cal/mol.K

 Total job time:  9613.33s(wall), 133322.31s(cpu)
        *  Thank you very much for using Q-Chem.  Have a nice day.  *
