 Q-Chem 5.0, Q-Chem, Inc., Pleasanton, CA (2017)
 Q-Chem 5.0.2 for Intel X86 EM64T Linux

User input:
--------------------------------------------------------------
$molecule
-2 1
C        0.0829277092    0.4378858722    0.4002889604
C       -0.2160301985    1.4326830295   -0.6439183386
O       -0.3268168024    1.0597691983   -1.8633955258
O       -0.4371148648    2.6454747155   -0.2887116945
C        0.8358139804   -0.7879423033    0.0182006545
H        0.4607569526    0.9002511509    1.3202374708
H        0.3846405156   -1.2559499255   -0.8656689306
H        0.8215186307   -1.5230020633    0.8362076104
O        2.2438411301   -0.5161534275   -0.2912169349
H       -1.3117308972   -0.0728361648    0.7359758654
O       -2.3537812459   -0.4796373497    1.0038616272
H       -2.8418211570   -0.4873224274    0.1725948844
H        2.6577962474   -1.3532203050   -0.5344556489
$end

$rem
jobtype               freq
method                wb97x-v
basis                 def2-tzvpd
symmetry              off
sym_ignore            true
incdft                false
incfock               0
!scf_algorithm        diis_gdm
scf_convergence       8
thresh                14
!purecart             112
max_scf_cycles        1000
geom_opt_max_cycles   500
geom_opt_dmax         100
geom_opt_tol_gradient 10
solvent_method        pcm
ideriv                1
rpath_tol_displacement 1000
rpath_max_cycles      100
rpath_direction       1
!scf_guess            read
scf_guess             read
$end

$pcm
theory              cosmo
method              iswig
Radii               bondi
vdwScale            1.20
hpoints             110
heavypoints         110
$end

$solvent
dielectric 78.400000
$end

--------------------------------------------------------------

   17    -419.1015126450      8.46E-09 Convergence criterion met
 Total energy in the final basis set = -419.10151265
   16    -419.1015121616      8.87E-09 Convergence criterion met
 Total energy in the final basis set = -419.10151216
   14    -419.1015121915      8.21E-09 Convergence criterion met
 Total energy in the final basis set = -419.10151219
   15    -419.1015117694      5.66E-09 Convergence criterion met
 Total energy in the final basis set = -419.10151177
   15    -419.1015117520      4.72E-09 Convergence criterion met
 Total energy in the final basis set = -419.10151175
   14    -419.1015116969      9.99E-09 Convergence criterion met
 Total energy in the final basis set = -419.10151170
   15    -419.1015117097      5.10E-09 Convergence criterion met
 Total energy in the final basis set = -419.10151171
   15    -419.1015121139      9.62E-09 Convergence criterion met
 Total energy in the final basis set = -419.10151189
   17    -419.1015119905      6.04E-10 Convergence criterion met
 Total energy in the final basis set = -419.10151199
   17    -419.1015124464      1.18E-09 Convergence criterion met
 Total energy in the final basis set = -419.10151245
   17    -419.1015123484      1.30E-09 Convergence criterion met
 Total energy in the final basis set = -419.10151235
   17    -419.1015119943      2.01E-09 Convergence criterion met
 Total energy in the final basis set = -419.10151199
   17    -419.1015118663      5.59E-10 Convergence criterion met
 Total energy in the final basis set = -419.10151187
   17    -419.1015126580      1.05E-09 Convergence criterion met
 Total energy in the final basis set = -419.10151266
   17    -419.1015125004      1.55E-09 Convergence criterion met
 Total energy in the final basis set = -419.10151250

                    Orbital Energies (a.u.)
 --------------------------------------------------------------

 Alpha MOs
 -- Occupied --
-19.188 -19.143 -19.114 -19.114 -10.312 -10.280 -10.181  -1.117
 -1.108  -1.046  -1.012  -0.837  -0.709  -0.596  -0.579  -0.546
 -0.540  -0.502  -0.484  -0.474  -0.452  -0.438  -0.410  -0.367
 -0.363  -0.325  -0.320  -0.303  -0.252

          Ground-State Mulliken Net Atomic Charges

     Atom                 Charge (a.u.)
  ----------------------------------------
      1 C                    -0.095501
      2 C                     0.131276
      3 O                    -0.768008
      4 O                    -0.794205
      5 C                    -0.214642
      6 H                     0.226474
      7 H                     0.134943
      8 H                     0.192421
      9 O                    -0.532285
     10 H                    -0.032724
     11 O                    -0.882364
     12 H                     0.313681
     13 H                     0.320934
  ----------------------------------------
  Sum of atomic charges =    -2.000000

                    Cartesian Multipole Moments
 -----------------------------------------------------------------
    Charge (ESU x 10^10)
                -9.6064
    Dipole Moment (Debye)
         X       5.5900      Y     -12.6829      Z       2.7595
       Tot      14.1322
    Quadrupole Moments (Debye-Ang)
        XX     -64.7962     XY      -1.0101     YY     -77.0452
        XZ       6.8398     YZ      11.9636     ZZ     -67.5568

             Standard Nuclear Orientation (Angstroms)
    I     Atom           X                Y                Z
 ----------------------------------------------------------------
    1      C       0.0829277092     0.4378858722     0.4002889604
    2      C      -0.2160301985     1.4326830295    -0.6439183386
    3      O      -0.3268168024     1.0597691983    -1.8633955258
    4      O      -0.4371148648     2.6454747155    -0.2887116945
    5      C       0.8358139804    -0.7879423033     0.0182006545
    6      H       0.4607569526     0.9002511509     1.3202374708
    7      H       0.3846405156    -1.2559499255    -0.8656689306
    8      H       0.8215186307    -1.5230020633     0.8362076104
    9      O       2.2438411301    -0.5161534275    -0.2912169349
   10      H      -1.3117308972    -0.0728361648     0.7359758654
   11      O      -2.3537812459    -0.4796373497     1.0038616272
   12      H      -2.8418211570    -0.4873224274     0.1725948844
   13      H       2.6577962474    -1.3532203050    -0.5344556489
 ----------------------------------------------------------------

 Frequency:      -998.38                  75.61                  82.34
 Force Cnst:      0.6926                 0.0278                 0.0226
 Red. Mass:       1.1793                 8.2492                 5.6703
 IR Intens:     8590.604                  3.713                 15.494
 Frequency:       108.92                 124.91                 134.87
 Force Cnst:      0.0341                 0.0517                 0.0122
 Red. Mass:       4.8813                 5.6269                 1.1427
 IR Intens:        2.183                  1.376                165.425
 Frequency:       245.83                 288.47                 384.21
 Force Cnst:      0.0444                 0.1018                 0.6914
 Red. Mass:       1.2474                 2.0768                 7.9492
 IR Intens:      173.610                 18.810                105.822
 Frequency:       520.45                 559.44                 605.82
 Force Cnst:      0.2832                 0.6293                 0.3313
 Red. Mass:       1.7747                 3.4126                 1.5323
 IR Intens:      292.923                 75.865                 90.969
 Frequency:       674.99                 779.36                 885.24
 Force Cnst:      1.0092                 0.7918                 1.4439
 Red. Mass:       3.7594                 2.2126                 3.1272
 IR Intens:       87.900                151.564                 25.604
 Frequency:       892.39                 967.33                1043.20
 Force Cnst:      2.2439                 2.0023                 1.2875
 Red. Mass:       4.7824                 3.6319                 2.0080
 IR Intens:      200.362                 72.806                 43.176
 Frequency:      1101.80                1203.67                1248.34
 Force Cnst:      1.5423                 0.9892                 1.0731
 Red. Mass:       2.1563                 1.1588                 1.1687
 IR Intens:       71.062                 30.403                 56.648
 Frequency:      1304.06                1324.78                1418.39
 Force Cnst:      1.0980                 1.8724                 2.1964
 Red. Mass:       1.0958                 1.8108                 1.8529
 IR Intens:       29.038                253.226                188.433
 Frequency:      1452.10                1465.29                1482.09
 Force Cnst:      3.3077                 4.9482                 1.5679
 Red. Mass:       2.6624                 3.9115                 1.2115
 IR Intens:      494.684               1089.718                 76.354
 Frequency:      1628.16                3002.64                3051.66
 Force Cnst:      1.6679                 5.6539                 5.9720
 Red. Mass:       1.0679                 1.0644                 1.0884
 IR Intens:       44.464                151.883                  2.298
 Frequency:      3063.17                3820.70                3847.22
 Force Cnst:      6.0439                 9.1692                 9.2945
 Red. Mass:       1.0933                 1.0661                 1.0658
 IR Intens:      210.276                 22.502                 15.319

 STANDARD THERMODYNAMIC QUANTITIES AT   298.15 K  AND     1.00 ATM

   This Molecule has  1 Imaginary Frequencies
   Zero point vibrational energy:       55.449 kcal/mol

   Atom    1 Element C  Has Mass   12.00000
   Atom    2 Element C  Has Mass   12.00000
   Atom    3 Element O  Has Mass   15.99491
   Atom    4 Element O  Has Mass   15.99491
   Atom    5 Element C  Has Mass   12.00000
   Atom    6 Element H  Has Mass    1.00783
   Atom    7 Element H  Has Mass    1.00783
   Atom    8 Element H  Has Mass    1.00783
   Atom    9 Element O  Has Mass   15.99491
   Atom   10 Element H  Has Mass    1.00783
   Atom   11 Element O  Has Mass   15.99491
   Atom   12 Element H  Has Mass    1.00783
   Atom   13 Element H  Has Mass    1.00783
   Molecular Mass:   106.026620 amu
   Principal axes and moments of inertia in amu*Bohr^2:
                             1           2           3
    Eigenvalues --      756.71682   945.30988  1395.04847
          X               0.90556     0.29738     0.30253
          Y              -0.40987     0.79726     0.44316
          Z              -0.10941    -0.52530     0.84385
   Rotational Symmetry Number is   1
   The Molecule is an Asymmetric Top
   Translational Enthalpy:        0.889 kcal/mol
   Rotational Enthalpy:           0.889 kcal/mol
   Vibrational Enthalpy:         59.168 kcal/mol
   gas constant (RT):             0.592 kcal/mol
   Translational Entropy:        39.892  cal/mol.K
   Rotational Entropy:           28.391  cal/mol.K
   Vibrational Entropy:          24.153  cal/mol.K

   Total Enthalpy:               61.538 kcal/mol
   Total Entropy:                92.436  cal/mol.K

 Total job time:  30805.74s(wall), 116202.46s(cpu)
        *  Thank you very much for using Q-Chem.  Have a nice day.  *
