 Q-Chem 5.0, Q-Chem, Inc., Pleasanton, CA (2017)
 Q-Chem 5.0.2 for Intel X86 EM64T Linux

User input:
--------------------------------------------------------------
$molecule
-2 1
C       -0.3012746060    0.5995121361    1.5483982112
C       -0.4410339527    1.6509798415    0.4336929040
O       -0.6810149283    1.2313143831   -0.7278327793
O       -0.3337113321    2.8600721958    0.7689044956
C        0.5398261851   -0.5965458582    1.1565796783
H        0.1102132553    1.0678762933    2.4472061520
H        0.1422991374   -1.0492694578    0.2416793958
H        0.5208796633   -1.3480751603    1.9562640246
O        1.8846131757   -0.1494426256    0.9409840656
H       -1.3103832271    0.2447452833    1.7917090162
O       -3.0658781132   -1.2115479317   -0.4590016461
H       -2.3673627268   -0.5469333980   -0.4697453228
H        2.4080349278   -0.8998243895    0.6384877610
$end

$rem
jobtype               freq
method                wb97x-v
basis                 def2-tzvpd
symmetry              off
sym_ignore            true
incdft                false
incfock               0
!scf_algorithm        diis_gdm
scf_convergence       8
thresh                14
!purecart             112
max_scf_cycles        1000
geom_opt_max_cycles   500
geom_opt_dmax         100
geom_opt_tol_gradient 10
solvent_method        pcm
ideriv                1
rpath_tol_displacement 1000
rpath_max_cycles      100
rpath_direction       1
!scf_guess            read
scf_guess             read
$end

$pcm
theory              cosmo
method              iswig
Radii               bondi
vdwScale            1.20
hpoints             110
heavypoints         110
$end

$solvent
dielectric 78.400000
$end

--------------------------------------------------------------

   17    -419.1315849205      6.01E-09 Convergence criterion met
 Total energy in the final basis set = -419.13158492
   16    -419.1315839724      3.38E-09 Convergence criterion met
 Total energy in the final basis set = -419.13158397
   14    -419.1315839118      6.41E-09 Convergence criterion met
 Total energy in the final basis set = -419.13158391
   15    -419.1315839969      8.82E-09 Convergence criterion met
 Total energy in the final basis set = -419.13158400
   14    -419.1315840158      6.46E-09 Convergence criterion met
 Total energy in the final basis set = -419.13158402
   15    -419.1315839348      8.72E-09 Convergence criterion met
 Total energy in the final basis set = -419.13158393
   14    -419.1315839597      7.18E-09 Convergence criterion met
 Total energy in the final basis set = -419.13158396
   16    -419.1315844484      3.80E-09 Convergence criterion met
 Total energy in the final basis set = -419.13158491
   17    -419.1315849097      7.88E-10 Convergence criterion met
 Total energy in the final basis set = -419.13158491
   17    -419.1315845652      1.00E-09 Convergence criterion met
 Total energy in the final basis set = -419.13158457
   16    -419.1315845677      3.10E-09 Convergence criterion met
 Total energy in the final basis set = -419.13158457
   17    -419.1315843127      1.15E-09 Convergence criterion met
 Total energy in the final basis set = -419.13158431
   16    -419.1315843419      3.46E-09 Convergence criterion met
 Total energy in the final basis set = -419.13158434
   16    -419.1315848649      2.29E-09 Convergence criterion met
 Total energy in the final basis set = -419.13158486
   17    -419.1315847812      8.53E-10 Convergence criterion met
 Total energy in the final basis set = -419.13158478

                    Orbital Energies (a.u.)
 --------------------------------------------------------------

 Alpha MOs
 -- Occupied --
-19.207 -19.140 -19.139 -19.088 -10.341 -10.302 -10.249  -1.147
 -1.139  -1.049  -0.961  -0.879  -0.740  -0.627  -0.609  -0.564
 -0.530  -0.523  -0.505  -0.485  -0.450  -0.443  -0.435  -0.381
 -0.347  -0.335  -0.330  -0.309  -0.309

          Ground-State Mulliken Net Atomic Charges

     Atom                 Charge (a.u.)
  ----------------------------------------
      1 C                     0.050271
      2 C                     0.136193
      3 O                    -0.687897
      4 O                    -0.719311
      5 C                    -0.304655
      6 H                     0.192217
      7 H                     0.175620
      8 H                     0.195602
      9 O                    -0.516939
     10 H                     0.190796
     11 O                    -1.126889
     12 H                     0.090249
     13 H                     0.324742
  ----------------------------------------
  Sum of atomic charges =    -2.000000

                    Cartesian Multipole Moments
 -----------------------------------------------------------------
    Charge (ESU x 10^10)
                -9.6064
    Dipole Moment (Debye)
         X      17.5657      Y      -6.1591      Z       3.0642
       Tot      18.8647
    Quadrupole Moments (Debye-Ang)
        XX    -100.2601     XY     -20.2803     YY     -85.0226
        XZ     -11.2634     YZ      -7.3375     ZZ     -53.7883

             Standard Nuclear Orientation (Angstroms)
    I     Atom           X                Y                Z
 ----------------------------------------------------------------
    1      C      -0.3012746060     0.5995121361     1.5483982112
    2      C      -0.4410339527     1.6509798415     0.4336929040
    3      O      -0.6810149283     1.2313143831    -0.7278327793
    4      O      -0.3337113321     2.8600721958     0.7689044956
    5      C       0.5398261851    -0.5965458582     1.1565796783
    6      H       0.1102132553     1.0678762933     2.4472061520
    7      H       0.1422991374    -1.0492694578     0.2416793958
    8      H       0.5208796633    -1.3480751603     1.9562640246
    9      O       1.8846131757    -0.1494426256     0.9409840656
   10      H      -1.3103832271     0.2447452833     1.7917090162
   11      O      -3.0658781132    -1.2115479317    -0.4590016461
   12      H      -2.3673627268    -0.5469333980    -0.4697453228
   13      H       2.4080349278    -0.8998243895     0.6384877610
 ----------------------------------------------------------------

 Frequency:        33.89                  48.39                  62.85
 Force Cnst:      0.0050                 0.0090                 0.0125
 Red. Mass:       7.3456                 6.4988                 5.3592
 IR Intens:       32.208                  3.907                 32.266
 Frequency:        91.00                 129.12                 213.59
 Force Cnst:      0.0408                 0.0564                 0.0312
 Red. Mass:       8.3530                 5.7377                 1.1592
 IR Intens:       16.174                  5.519                187.336
 Frequency:       277.57                 355.98                 375.29
 Force Cnst:      0.1046                 0.0785                 0.0886
 Red. Mass:       2.3033                 1.0513                 1.0680
 IR Intens:       10.402                125.844                120.011
 Frequency:       400.97                 511.53                 605.50
 Force Cnst:      0.2218                 0.6724                 0.9322
 Red. Mass:       2.3415                 4.3614                 4.3157
 IR Intens:       23.378                 36.428                 33.392
 Frequency:       699.00                 871.59                 906.59
 Force Cnst:      0.7723                 1.8532                 1.3240
 Red. Mass:       2.6828                 4.1405                 2.7342
 IR Intens:       15.150                 30.793                 18.453
 Frequency:      1005.28                1060.15                1104.79
 Force Cnst:      1.2335                 1.3509                 2.3852
 Red. Mass:       2.0717                 2.0401                 3.3167
 IR Intens:        1.520                 36.055                125.861
 Frequency:      1176.09                1248.32                1291.42
 Force Cnst:      0.9172                 1.0648                 1.2075
 Red. Mass:       1.1255                 1.1597                 1.2288
 IR Intens:       21.901                 47.680                 54.943
 Frequency:      1342.86                1436.63                1442.78
 Force Cnst:      1.7638                 3.8920                 1.4438
 Red. Mass:       1.6602                 3.2006                 1.1772
 IR Intens:       54.135                231.883                 21.012
 Frequency:      1457.83                1504.72                1591.34
 Force Cnst:      2.1542                 1.4587                14.8913
 Red. Mass:       1.7204                 1.0935                 9.9806
 IR Intens:       86.774                 17.713               1295.686
 Frequency:      3035.50                3065.07                3089.16
 Force Cnst:      5.7642                 5.8802                 6.1966
 Red. Mass:       1.0618                 1.0623                 1.1021
 IR Intens:       84.632                 25.560                 35.816
 Frequency:      3117.09                3822.07                3845.79
 Force Cnst:      6.3074                 9.1843                 9.2952
 Red. Mass:       1.1018                 1.0671                 1.0667
 IR Intens:       61.449                 15.532                 86.376

 STANDARD THERMODYNAMIC QUANTITIES AT   298.15 K  AND     1.00 ATM

   This Molecule has  0 Imaginary Frequencies
   Zero point vibrational energy:       58.927 kcal/mol

   Atom    1 Element C  Has Mass   12.00000
   Atom    2 Element C  Has Mass   12.00000
   Atom    3 Element O  Has Mass   15.99491
   Atom    4 Element O  Has Mass   15.99491
   Atom    5 Element C  Has Mass   12.00000
   Atom    6 Element H  Has Mass    1.00783
   Atom    7 Element H  Has Mass    1.00783
   Atom    8 Element H  Has Mass    1.00783
   Atom    9 Element O  Has Mass   15.99491
   Atom   10 Element H  Has Mass    1.00783
   Atom   11 Element O  Has Mass   15.99491
   Atom   12 Element H  Has Mass    1.00783
   Atom   13 Element H  Has Mass    1.00783
   Molecular Mass:   106.026620 amu
   Principal axes and moments of inertia in amu*Bohr^2:
                             1           2           3
    Eigenvalues --      773.14554  1095.57221  1586.30408
          X               0.85608    -0.34883    -0.38136
          Y               0.38766     0.92140     0.02741
          Z               0.34182    -0.17130     0.92402
   Rotational Symmetry Number is   1
   The Molecule is an Asymmetric Top
   Translational Enthalpy:        0.889 kcal/mol
   Rotational Enthalpy:           0.889 kcal/mol
   Vibrational Enthalpy:         63.132 kcal/mol
   gas constant (RT):             0.592 kcal/mol
   Translational Entropy:        39.892  cal/mol.K
   Rotational Entropy:           28.687  cal/mol.K
   Vibrational Entropy:          30.241  cal/mol.K

   Total Enthalpy:               65.502 kcal/mol
   Total Entropy:                98.821  cal/mol.K

 Total job time:  9371.06s(wall), 129188.00s(cpu)
        *  Thank you very much for using Q-Chem.  Have a nice day.  *
