 Q-Chem 5.0, Q-Chem, Inc., Pleasanton, CA (2017)
 Q-Chem 5.0.2 for Intel X86 EM64T Linux

User input:
--------------------------------------------------------------
$molecule
-2 1
C       -0.1632160805    0.4677295829    0.4072079458
C       -0.4103694557    1.6904402579   -0.3322291614
O       -0.2377826613    1.7200606394   -1.6084760568
O       -0.8561721083    2.7244453712    0.2975351933
C        0.6516563053   -0.6124799492   -0.1652222546
H       -0.1305435824    0.5741438140    1.4933550955
H        0.4154035697   -0.8022138171   -1.2191390550
H        0.5601571565   -1.5546628804    0.3935174097
O        2.1228888398   -0.3913284389   -0.2902109562
O        2.6879525156   -0.3280528700    1.0195172787
H       -1.8563514120   -0.2330712169    0.1176610728
O       -2.7805873298   -0.6314450138   -0.0394936750
H       -3.0179510105   -0.3599082285   -0.9332399861
H        2.8789342005   -1.2594081058    1.2087731321
$end

$rem
jobtype               freq
method                wb97x-v
basis                 def2-tzvpd
symmetry              off
sym_ignore            true
incdft                false
incfock               0
!scf_algorithm        diis_gdm
scf_convergence       8
thresh                14
!purecart             112
max_scf_cycles        1000
geom_opt_max_cycles   500
geom_opt_dmax         100
geom_opt_tol_gradient 10
solvent_method        pcm
ideriv                1
rpath_tol_displacement 1000
rpath_max_cycles      100
rpath_direction       1
!scf_guess            read
scf_guess             read
$end

$pcm
theory              cosmo
method              iswig
Radii               bondi
vdwScale            1.20
hpoints             110
heavypoints         110
$end

$solvent
dielectric 78.400000
$end

--------------------------------------------------------------

   18    -494.2460530007      4.30E-09 Convergence criterion met
 Total energy in the final basis set = -494.24605300
   17    -494.2460526440      1.36E-09 Convergence criterion met
 Total energy in the final basis set = -494.24605264
   15    -494.2460526382      8.48E-09 Convergence criterion met
 Total energy in the final basis set = -494.24605264
   16    -494.2460521571      3.45E-09 Convergence criterion met
 Total energy in the final basis set = -494.24605216
   15    -494.2460521574      6.31E-09 Convergence criterion met
 Total energy in the final basis set = -494.24605216
   16    -494.2460519048      2.74E-09 Convergence criterion met
 Total energy in the final basis set = -494.24605190
   15    -494.2460519045      6.67E-09 Convergence criterion met
 Total energy in the final basis set = -494.24605190
   16    -494.2460524541      3.47E-09 Convergence criterion met
 Total energy in the final basis set = -494.24605219
   17    -494.2460521776      1.38E-09 Convergence criterion met
 Total energy in the final basis set = -494.24605218
   17    -494.2460529473      2.36E-09 Convergence criterion met
 Total energy in the final basis set = -494.24605295
   17    -494.2460529411      3.40E-09 Convergence criterion met
 Total energy in the final basis set = -494.24605294
   17    -494.2460521509      2.83E-09 Convergence criterion met
 Total energy in the final basis set = -494.24605215
   17    -494.2460521587      1.27E-09 Convergence criterion met
 Total energy in the final basis set = -494.24605216
   17    -494.2460528729      2.88E-09 Convergence criterion met
 Total energy in the final basis set = -494.24605287
   17    -494.2460528795      3.62E-09 Convergence criterion met
 Total energy in the final basis set = -494.24605288

                    Orbital Energies (a.u.)
 --------------------------------------------------------------

 Alpha MOs
 -- Occupied --
-19.251 -19.241 -19.176 -19.108 -19.108 -10.307 -10.283 -10.175
 -1.230  -1.101  -1.093  -1.006  -1.001  -0.829  -0.716  -0.618
 -0.599  -0.570  -0.554  -0.550  -0.502  -0.498  -0.482  -0.460
 -0.455  -0.420  -0.398  -0.387  -0.365  -0.320  -0.317  -0.298
 -0.241

          Ground-State Mulliken Net Atomic Charges

     Atom                 Charge (a.u.)
  ----------------------------------------
      1 C                    -0.588011
      2 C                     0.299860
      3 O                    -0.785534
      4 O                    -0.812259
      5 C                    -0.036170
      6 H                     0.177142
      7 H                     0.123143
      8 H                     0.213787
      9 O                    -0.268249
     10 O                    -0.397054
     11 H                     0.155912
     12 O                    -0.781099
     13 H                     0.346931
     14 H                     0.351600
  ----------------------------------------
  Sum of atomic charges =    -2.000000

                    Cartesian Multipole Moments
 -----------------------------------------------------------------
    Charge (ESU x 10^10)
                -9.6064
    Dipole Moment (Debye)
         X       4.6443      Y     -15.7439      Z       2.7600
       Tot      16.6450
    Quadrupole Moments (Debye-Ang)
        XX     -76.2939     XY       1.3519     YY     -91.8751
        XZ       7.0749     YZ       4.2875     ZZ     -64.2553

             Standard Nuclear Orientation (Angstroms)
    I     Atom           X                Y                Z
 ----------------------------------------------------------------
    1      C      -0.1632160805     0.4677295829     0.4072079458
    2      C      -0.4103694557     1.6904402579    -0.3322291614
    3      O      -0.2377826613     1.7200606394    -1.6084760568
    4      O      -0.8561721083     2.7244453712     0.2975351933
    5      C       0.6516563053    -0.6124799492    -0.1652222546
    6      H      -0.1305435824     0.5741438140     1.4933550955
    7      H       0.4154035697    -0.8022138171    -1.2191390550
    8      H       0.5601571565    -1.5546628804     0.3935174097
    9      O       2.1228888398    -0.3913284389    -0.2902109562
   10      O       2.6879525156    -0.3280528700     1.0195172787
   11      H      -1.8563514120    -0.2330712169     0.1176610728
   12      O      -2.7805873298    -0.6314450138    -0.0394936750
   13      H      -3.0179510105    -0.3599082285    -0.9332399861
   14      H       2.8789342005    -1.2594081058     1.2087731321
 ----------------------------------------------------------------

 Frequency:        39.70                  49.85                  59.33
 Force Cnst:      0.0010                 0.0087                 0.0120
 Red. Mass:       1.1303                 5.9638                 5.7800
 IR Intens:      138.677                  4.652                 37.008
 Frequency:        78.77                 111.34                 140.93
 Force Cnst:      0.0296                 0.0757                 0.0644
 Red. Mass:       8.1036                10.3695                 5.5019
 IR Intens:        8.125                 11.793                  5.509
 Frequency:       187.94                 242.19                 283.18
 Force Cnst:      0.1274                 0.0400                 0.2021
 Red. Mass:       6.1192                 1.1582                 4.2774
 IR Intens:       84.631                160.523                  7.756
 Frequency:       386.58                 498.42                 507.39
 Force Cnst:      0.2387                 0.2412                 0.2863
 Red. Mass:       2.7114                 1.6479                 1.8875
 IR Intens:       20.424                 56.322                168.819
 Frequency:       614.57                 639.95                 678.85
 Force Cnst:      0.8116                 0.4152                 0.6827
 Red. Mass:       3.6470                 1.7209                 2.5144
 IR Intens:       65.803                213.821                 66.993
 Frequency:       758.22                 830.71                 886.56
 Force Cnst:      2.5474                 4.5490                 1.5706
 Red. Mass:       7.5208                11.1883                 3.3916
 IR Intens:      368.110                 99.180                  7.844
 Frequency:       929.53                 996.58                1048.04
 Force Cnst:      0.5359                 6.7704                 1.5098
 Red. Mass:       1.0528                11.5703                 2.3330
 IR Intens:       33.770                 10.737                 30.179
 Frequency:      1162.87                1267.41                1309.01
 Force Cnst:      1.7915                 1.5216                 1.5496
 Red. Mass:       2.2485                 1.6077                 1.5349
 IR Intens:      175.848                207.927                417.854
 Frequency:      1352.55                1378.89                1404.85
 Force Cnst:      1.4900                 1.3574                 3.9942
 Red. Mass:       1.3824                 1.2117                 3.4349
 IR Intens:       97.727                272.758                704.080
 Frequency:      1431.35                1449.25                1637.05
 Force Cnst:      1.9187                 2.4262                 1.6906
 Red. Mass:       1.5895                 1.9606                 1.0707
 IR Intens:      530.688                510.514                 75.237
 Frequency:      2706.52                3015.20                3084.68
 Force Cnst:      4.6743                 5.6975                 6.1544
 Red. Mass:       1.0830                 1.0637                 1.0978
 IR Intens:     3542.677                154.645                 28.119
 Frequency:      3111.97                3763.46                3860.99
 Force Cnst:      6.2014                 8.9149                 9.3551
 Red. Mass:       1.0869                 1.0683                 1.0651
 IR Intens:      115.674                 67.460                 55.874

 STANDARD THERMODYNAMIC QUANTITIES AT   298.15 K  AND     1.00 ATM

   This Molecule has  0 Imaginary Frequencies
   Zero point vibrational energy:       59.906 kcal/mol

   Atom    1 Element C  Has Mass   12.00000
   Atom    2 Element C  Has Mass   12.00000
   Atom    3 Element O  Has Mass   15.99491
   Atom    4 Element O  Has Mass   15.99491
   Atom    5 Element C  Has Mass   12.00000
   Atom    6 Element H  Has Mass    1.00783
   Atom    7 Element H  Has Mass    1.00783
   Atom    8 Element H  Has Mass    1.00783
   Atom    9 Element O  Has Mass   15.99491
   Atom   10 Element O  Has Mass   15.99491
   Atom   11 Element H  Has Mass    1.00783
   Atom   12 Element O  Has Mass   15.99491
   Atom   13 Element H  Has Mass    1.00783
   Atom   14 Element H  Has Mass    1.00783
   Molecular Mass:   122.021530 amu
   Principal axes and moments of inertia in amu*Bohr^2:
                             1           2           3
    Eigenvalues --      804.59725  1585.21571  1968.74693
          X               0.92220     0.37260    -0.10351
          Y              -0.34963     0.91772     0.18853
          Z               0.16524    -0.13767     0.97660
   Rotational Symmetry Number is   1
   The Molecule is an Asymmetric Top
   Translational Enthalpy:        0.889 kcal/mol
   Rotational Enthalpy:           0.889 kcal/mol
   Vibrational Enthalpy:         64.782 kcal/mol
   gas constant (RT):             0.592 kcal/mol
   Translational Entropy:        40.311  cal/mol.K
   Rotational Entropy:           29.308  cal/mol.K
   Vibrational Entropy:          34.615  cal/mol.K

   Total Enthalpy:               67.152 kcal/mol
   Total Entropy:               104.235  cal/mol.K

 Total job time:  14292.88s(wall), 197674.37s(cpu)
        *  Thank you very much for using Q-Chem.  Have a nice day.  *
