 Q-Chem 5.0, Q-Chem, Inc., Pleasanton, CA (2017)
 Q-Chem 5.0.2 for Intel X86 EM64T Linux

User input:
--------------------------------------------------------------
$molecule
-2 1
C       -0.2314921043    0.3579276649    0.3596458929
C       -0.2198300014    1.6874057246   -0.2815330563
O       -0.0083057896    1.7778457382   -1.5392315406
O       -0.4955061364    2.7138698492    0.4322606115
C        0.5431087798   -0.7292342237   -0.2904596775
H       -0.0844607037    0.4128742357    1.4430011908
H        0.3144882050   -0.7995990680   -1.3595731426
H        0.3527289882   -1.7076073467    0.1730064890
O        2.0051702449   -0.5860468047   -0.3406670755
O        2.5171980044   -0.6957250498    0.9872098465
H       -1.6557297990   -0.0726965773    0.1786466149
O       -2.7585828543   -0.4267856228    0.0516365743
H       -2.9629768114   -0.2846547631   -0.8796819346
H        2.6841899778   -1.6475737565    1.0657392076
$end

$rem
jobtype               freq
method                wb97x-v
basis                 def2-tzvpd
symmetry              off
sym_ignore            true
incdft                false
incfock               0
!scf_algorithm        diis_gdm
scf_convergence       8
thresh                14
!purecart             112
max_scf_cycles        1000
geom_opt_max_cycles   500
geom_opt_dmax         100
geom_opt_tol_gradient 10
solvent_method        pcm
ideriv                1
rpath_tol_displacement 1000
rpath_max_cycles      100
rpath_direction       1
!scf_guess            read
scf_guess             read
$end

$pcm
theory              cosmo
method              iswig
Radii               bondi
vdwScale            1.20
hpoints             110
heavypoints         110
$end

$solvent
dielectric 78.400000
$end

--------------------------------------------------------------

   18    -494.2439937977      3.37E-09 Convergence criterion met
 Total energy in the final basis set = -494.24399380
   16    -494.2439934253      7.45E-09 Convergence criterion met
 Total energy in the final basis set = -494.24399343
   15    -494.2439934065      5.02E-09 Convergence criterion met
 Total energy in the final basis set = -494.24399341
   16    -494.2439929634      2.75E-09 Convergence criterion met
 Total energy in the final basis set = -494.24399296
   15    -494.2439928959      5.66E-09 Convergence criterion met
 Total energy in the final basis set = -494.24399290
   15    -494.2439927115      9.04E-09 Convergence criterion met
 Total energy in the final basis set = -494.24399271
   15    -494.2439927688      7.52E-09 Convergence criterion met
 Total energy in the final basis set = -494.24399277
   15    -494.2439933295      5.78E-09 Convergence criterion met
 Total energy in the final basis set = -494.24399296
   16    -494.2439928686      7.43E-09 Convergence criterion met
 Total energy in the final basis set = -494.24399287
   17    -494.2439937307      1.83E-09 Convergence criterion met
 Total energy in the final basis set = -494.24399373
   17    -494.2439937737      2.84E-09 Convergence criterion met
 Total energy in the final basis set = -494.24399377
   17    -494.2439929571      2.17E-09 Convergence criterion met
 Total energy in the final basis set = -494.24399296
   16    -494.2439928859      5.29E-09 Convergence criterion met
 Total energy in the final basis set = -494.24399289
   17    -494.2439938037      2.01E-09 Convergence criterion met
 Total energy in the final basis set = -494.24399380
   17    -494.2439935811      3.46E-09 Convergence criterion met
 Total energy in the final basis set = -494.24399358

                    Orbital Energies (a.u.)
 --------------------------------------------------------------

 Alpha MOs
 -- Occupied --
-19.254 -19.248 -19.140 -19.116 -19.116 -10.315 -10.286 -10.183
 -1.237  -1.112  -1.043  -1.016  -1.010  -0.834  -0.722  -0.623
 -0.579  -0.567  -0.560  -0.542  -0.506  -0.502  -0.479  -0.464
 -0.439  -0.423  -0.393  -0.368  -0.364  -0.327  -0.320  -0.305
 -0.255

          Ground-State Mulliken Net Atomic Charges

     Atom                 Charge (a.u.)
  ----------------------------------------
      1 C                    -0.072728
      2 C                     0.193076
      3 O                    -0.768749
      4 O                    -0.789571
      5 C                    -0.130939
      6 H                     0.179020
      7 H                     0.128366
      8 H                     0.217947
      9 O                    -0.262786
     10 O                    -0.393821
     11 H                    -0.086789
     12 O                    -0.884529
     13 H                     0.317500
     14 H                     0.354004
  ----------------------------------------
  Sum of atomic charges =    -2.000000

                    Cartesian Multipole Moments
 -----------------------------------------------------------------
    Charge (ESU x 10^10)
                -9.6064
    Dipole Moment (Debye)
         X       5.6873      Y     -14.8906      Z       1.6692
       Tot      16.0269
    Quadrupole Moments (Debye-Ang)
        XX     -80.8086     XY      -2.8969     YY     -88.4248
        XZ       8.0139     YZ       3.1659     ZZ     -63.4931

             Standard Nuclear Orientation (Angstroms)
    I     Atom           X                Y                Z
 ----------------------------------------------------------------
    1      C      -0.2314921043     0.3579276649     0.3596458929
    2      C      -0.2198300014     1.6874057246    -0.2815330563
    3      O      -0.0083057896     1.7778457382    -1.5392315406
    4      O      -0.4955061364     2.7138698492     0.4322606115
    5      C       0.5431087798    -0.7292342237    -0.2904596775
    6      H      -0.0844607037     0.4128742357     1.4430011908
    7      H       0.3144882050    -0.7995990680    -1.3595731426
    8      H       0.3527289882    -1.7076073467     0.1730064890
    9      O       2.0051702449    -0.5860468047    -0.3406670755
   10      O       2.5171980044    -0.6957250498     0.9872098465
   11      H      -1.6557297990    -0.0726965773     0.1786466149
   12      O      -2.7585828543    -0.4267856228     0.0516365743
   13      H      -2.9629768114    -0.2846547631    -0.8796819346
   14      H       2.6841899778    -1.6475737565     1.0657392076
 ----------------------------------------------------------------

 Frequency:     -1123.94                  61.93                  67.14
 Force Cnst:      0.8437                 0.0174                 0.0180
 Red. Mass:       1.1336                 7.6880                 6.7823
 IR Intens:     9089.455                  6.063                  3.152
 Frequency:        80.74                  97.94                 132.21
 Force Cnst:      0.0281                 0.0373                 0.0116
 Red. Mass:       7.3240                 6.6042                 1.1278
 IR Intens:       14.249                  3.897                169.990
 Frequency:       147.38                 237.64                 245.18
 Force Cnst:      0.0619                 0.0386                 0.1996
 Red. Mass:       4.8389                 1.1600                 5.6355
 IR Intens:       12.830                149.061                  3.782
 Frequency:       363.66                 471.71                 516.30
 Force Cnst:      0.2698                 0.4678                 0.2976
 Red. Mass:       3.4621                 3.5687                 1.8950
 IR Intens:       65.633                109.929                214.692
 Frequency:       580.71                 620.84                 679.65
 Force Cnst:      0.4379                 0.5397                 1.1005
 Red. Mass:       2.2037                 2.3765                 4.0438
 IR Intens:       32.070                 29.307                 41.933
 Frequency:       772.90                 835.95                 886.84
 Force Cnst:      0.6560                 2.6808                 1.6991
 Red. Mass:       1.8639                 6.5110                 3.6668
 IR Intens:      126.753                 56.869                 34.825
 Frequency:       932.83                1011.97                1041.21
 Force Cnst:      1.7870                 7.2514                 1.3617
 Red. Mass:       3.4856                12.0181                 2.1319
 IR Intens:       50.775                 14.389                 35.140
 Frequency:      1127.46                1256.66                1302.54
 Force Cnst:      1.7645                 1.1525                 1.0990
 Red. Mass:       2.3560                 1.2387                 1.0995
 IR Intens:       76.575                 70.904                 22.074
 Frequency:      1331.77                1378.21                1385.37
 Force Cnst:      1.5886                 1.6372                 1.3802
 Red. Mass:       1.5202                 1.4629                 1.2205
 IR Intens:      197.642                 20.334                180.051
 Frequency:      1439.49                1456.64                1475.35
 Force Cnst:      1.5946                 3.2350                 6.9625
 Red. Mass:       1.3061                 2.5877                 5.4291
 IR Intens:      120.420                449.656               1124.466
 Frequency:      1622.67                3019.89                3082.66
 Force Cnst:      1.6437                 5.7270                 6.0701
 Red. Mass:       1.0595                 1.0659                 1.0842
 IR Intens:       39.232                121.678                 47.511
 Frequency:      3099.28                3763.15                3845.24
 Force Cnst:      6.2084                 8.9137                 9.2854
 Red. Mass:       1.0970                 1.0683                 1.0659
 IR Intens:       86.415                 71.658                 12.883

 STANDARD THERMODYNAMIC QUANTITIES AT   298.15 K  AND     1.00 ATM

   This Molecule has  1 Imaginary Frequencies
   Zero point vibrational energy:       57.713 kcal/mol

   Atom    1 Element C  Has Mass   12.00000
   Atom    2 Element C  Has Mass   12.00000
   Atom    3 Element O  Has Mass   15.99491
   Atom    4 Element O  Has Mass   15.99491
   Atom    5 Element C  Has Mass   12.00000
   Atom    6 Element H  Has Mass    1.00783
   Atom    7 Element H  Has Mass    1.00783
   Atom    8 Element H  Has Mass    1.00783
   Atom    9 Element O  Has Mass   15.99491
   Atom   10 Element O  Has Mass   15.99491
   Atom   11 Element H  Has Mass    1.00783
   Atom   12 Element O  Has Mass   15.99491
   Atom   13 Element H  Has Mass    1.00783
   Atom   14 Element H  Has Mass    1.00783
   Molecular Mass:   122.021530 amu
   Principal axes and moments of inertia in amu*Bohr^2:
                             1           2           3
    Eigenvalues --      826.80030  1482.11011  1879.85682
          X               0.87594     0.47940    -0.05387
          Y              -0.46372     0.86751     0.17994
          Z               0.13300    -0.13264     0.98220
   Rotational Symmetry Number is   1
   The Molecule is an Asymmetric Top
   Translational Enthalpy:        0.889 kcal/mol
   Rotational Enthalpy:           0.889 kcal/mol
   Vibrational Enthalpy:         62.172 kcal/mol
   gas constant (RT):             0.592 kcal/mol
   Translational Entropy:        40.311  cal/mol.K
   Rotational Entropy:           29.222  cal/mol.K
   Vibrational Entropy:          29.967  cal/mol.K

   Total Enthalpy:               64.542 kcal/mol
   Total Entropy:                99.500  cal/mol.K

 Total job time:  45767.46s(wall), 175585.09s(cpu)
        *  Thank you very much for using Q-Chem.  Have a nice day.  *
