 Q-Chem 5.0, Q-Chem, Inc., Pleasanton, CA (2017)
 Q-Chem 5.0.2 for Intel X86 EM64T Linux

User input:
--------------------------------------------------------------
$molecule
-2 1
C       -0.9680515023    0.6374150962    0.2381687418
O       -1.0072180789    0.8985671626    1.4831833636
C       -1.2558579135    1.7755336112   -0.7369651314
H       -2.3148161009    2.0365255954   -0.6461020192
H       -0.6587679890    2.6516732662   -0.4734373278
H       -1.0515134313    1.4895612002   -1.7714523184
C        0.6268303988   -0.0545993738   -0.2988625752
H        0.6522020555   -0.3315743241   -1.3511450137
H        1.1063782224    0.9183230915   -0.1681607080
C        1.2105432440   -1.0798011896    0.6350525946
H        0.8846774738   -2.0893318397    0.3768778523
H        0.8529434956   -0.8728195184    1.6519655149
C        2.7509519688   -1.0575927258    0.7055281753
O        3.3365407893    0.0340241719    0.4887658620
O        3.3113823688   -2.1423938689    1.0119436533
O       -1.3057119186   -0.5863466608   -0.2245932127
O       -3.1639433779   -0.8047104171   -0.0961548324
H       -3.1748697049   -0.9593432768    0.8555173813
$end

$rem
jobtype               freq
method                wb97x-v
basis                 def2-tzvpd
symmetry              off
sym_ignore            true
unrestricted          false
incdft                false
incfock               0
!scf_algorithm        diis_gdm
scf_convergence       8
thresh                14
!purecart             112
max_scf_cycles        1000
geom_opt_max_cycles   500
geom_opt_dmax         100
geom_opt_tol_gradient 10
solvent_method        pcm
ideriv                1
rpath_tol_displacement 1000
rpath_max_cycles      100
rpath_direction       1
!scf_guess            read
scf_guess             read
$end

$pcm
theory              cosmo
method              iswig
Radii               bondi
vdwScale            1.20
hpoints             110
heavypoints         110
$end

$solvent
dielectric 78.400000
$end

--------------------------------------------------------------

   18    -571.6684484651      6.27E-09 Convergence criterion met
 Total energy in the final basis set = -571.66844847
   15    -571.6684481833      8.63E-09 Convergence criterion met
 Total energy in the final basis set = -571.66844818
   15    -571.6684481546      7.38E-09 Convergence criterion met
 Total energy in the final basis set = -571.66844815
   15    -571.6684475448      7.15E-09 Convergence criterion met
 Total energy in the final basis set = -571.66844754
   15    -571.6684475011      7.27E-09 Convergence criterion met
 Total energy in the final basis set = -571.66844750
   15    -571.6684473125      7.56E-09 Convergence criterion met
 Total energy in the final basis set = -571.66844731
   15    -571.6684473257      7.39E-09 Convergence criterion met
 Total energy in the final basis set = -571.66844733
   15    -571.6684483931      9.16E-09 Convergence criterion met
 Total energy in the final basis set = -571.66844753
   16    -571.6684474846      2.51E-09 Convergence criterion met
 Total energy in the final basis set = -571.66844748
   16    -571.6684484222      7.14E-09 Convergence criterion met
 Total energy in the final basis set = -571.66844842
   17    -571.6684484431      1.89E-09 Convergence criterion met
 Total energy in the final basis set = -571.66844844
   17    -571.6684484894      1.99E-09 Convergence criterion met
 Total energy in the final basis set = -571.66844849
   17    -571.6684483862      2.04E-09 Convergence criterion met
 Total energy in the final basis set = -571.66844839
   17    -571.6684475754      1.93E-09 Convergence criterion met
 Total energy in the final basis set = -571.66844758
   16    -571.6684475093      2.62E-09 Convergence criterion met
 Total energy in the final basis set = -571.66844751

                    Orbital Energies (a.u.)
 --------------------------------------------------------------

 Alpha MOs
 -- Occupied --
-19.243 -19.148 -19.141 -19.140 -19.130 -10.358 -10.343 -10.284
-10.249 -10.244  -1.169  -1.145  -1.066  -1.051  -1.009  -0.886
 -0.841  -0.748  -0.640  -0.608  -0.572  -0.563  -0.552  -0.541
 -0.528  -0.510  -0.501  -0.488  -0.480  -0.474  -0.453  -0.434
 -0.384  -0.378  -0.351  -0.349  -0.342  -0.333  -0.330  -0.283

          Ground-State Mulliken Net Atomic Charges

     Atom                 Charge (a.u.)
  ----------------------------------------
      1 C                     0.917862
      2 O                    -0.778186
      3 C                    -1.027136
      4 H                     0.214448
      5 H                     0.267580
      6 H                     0.257596
      7 C                    -0.346567
      8 H                     0.332975
      9 H                     0.202346
     10 C                    -0.220684
     11 H                     0.204388
     12 H                     0.204121
     13 C                     0.079425
     14 O                    -0.699218
     15 O                    -0.703845
     16 O                    -0.390037
     17 O                    -0.774648
     18 H                     0.259579
  ----------------------------------------
  Sum of atomic charges =    -2.000000

                    Cartesian Multipole Moments
 -----------------------------------------------------------------
    Charge (ESU x 10^10)
                -9.6064
    Dipole Moment (Debye)
         X      -5.4479      Y       5.8829      Z      -7.1186
       Tot      10.7220
    Quadrupole Moments (Debye-Ang)
        XX    -159.4315     XY      13.4417     YY     -83.8210
        XZ     -14.4943     YZ      -0.6671     ZZ     -74.4985

             Standard Nuclear Orientation (Angstroms)
    I     Atom           X                Y                Z
 ----------------------------------------------------------------
    1      C      -0.9680515023     0.6374150962     0.2381687418
    2      O      -1.0072180789     0.8985671626     1.4831833636
    3      C      -1.2558579135     1.7755336112    -0.7369651314
    4      H      -2.3148161009     2.0365255954    -0.6461020192
    5      H      -0.6587679890     2.6516732662    -0.4734373278
    6      H      -1.0515134313     1.4895612002    -1.7714523184
    7      C       0.6268303988    -0.0545993738    -0.2988625752
    8      H       0.6522020555    -0.3315743241    -1.3511450137
    9      H       1.1063782224     0.9183230915    -0.1681607080
   10      C       1.2105432440    -1.0798011896     0.6350525946
   11      H       0.8846774738    -2.0893318397     0.3768778523
   12      H       0.8529434956    -0.8728195184     1.6519655149
   13      C       2.7509519688    -1.0575927258     0.7055281753
   14      O       3.3365407893     0.0340241719     0.4887658620
   15      O       3.3113823688    -2.1423938689     1.0119436533
   16      O      -1.3057119186    -0.5863466608    -0.2245932127
   17      O      -3.1639433779    -0.8047104171    -0.0961548324
   18      H      -3.1748697049    -0.9593432768     0.8555173813
 ----------------------------------------------------------------

 Frequency:      -798.57                  30.07                  43.51
 Force Cnst:      3.2384                 0.0047                 0.0073
 Red. Mass:       8.6190                 8.7378                 6.5804
 IR Intens:     3908.793                 10.926                  6.534
 Frequency:        77.33                 119.56                 152.87
 Force Cnst:      0.0122                 0.0282                 0.0251
 Red. Mass:       3.4573                 3.3499                 1.8196
 IR Intens:       13.103                 13.430                 83.514
 Frequency:       177.20                 192.93                 211.78
 Force Cnst:      0.0863                 0.0244                 0.0483
 Red. Mass:       4.6640                 1.1136                 1.8270
 IR Intens:       13.537                 34.193                 45.356
 Frequency:       247.26                 283.36                 311.12
 Force Cnst:      0.1573                 0.2077                 0.3010
 Red. Mass:       4.3682                 4.3900                 5.2777
 IR Intens:       21.403                 38.732                 49.840
 Frequency:       450.19                 458.00                 546.27
 Force Cnst:      0.3867                 0.5040                 0.6644
 Red. Mass:       3.2380                 4.0782                 3.7786
 IR Intens:        3.745                  7.791                 64.912
 Frequency:       593.47                 619.84                 625.00
 Force Cnst:      0.7794                 0.7129                 0.8813
 Red. Mass:       3.7561                 3.1495                 3.8294
 IR Intens:       45.743                 12.826                 20.103
 Frequency:       699.71                 742.55                 789.84
 Force Cnst:      0.6815                 0.4065                 0.7128
 Red. Mass:       2.3624                 1.2514                 1.9392
 IR Intens:       35.657                 63.509                 36.744
 Frequency:       869.68                 925.37                 961.69
 Force Cnst:      2.0322                 2.1913                 0.9253
 Red. Mass:       4.5603                 4.3433                 1.6981
 IR Intens:       53.110                 32.714                  6.785
 Frequency:      1016.43                1044.27                1103.34
 Force Cnst:      0.9488                 1.0803                 1.7732
 Red. Mass:       1.5587                 1.6814                 2.4722
 IR Intens:       53.073                 15.134                  4.678
 Frequency:      1132.16                1163.92                1258.27
 Force Cnst:      1.0272                 1.1400                 1.6774
 Red. Mass:       1.3601                 1.4283                 1.7982
 IR Intens:        3.661                157.402                144.649
 Frequency:      1279.60                1327.54                1380.72
 Force Cnst:      1.6191                 1.7582                 1.5641
 Red. Mass:       1.6783                 1.6933                 1.3925
 IR Intens:       47.590                 74.624                130.562
 Frequency:      1422.38                1439.69                1455.63
 Force Cnst:      9.0520                 3.4789                 1.4435
 Red. Mass:       7.5939                 2.8488                 1.1563
 IR Intens:      500.896                529.295                 43.086
 Frequency:      1461.23                1467.54                1481.60
 Force Cnst:      1.3972                 1.3545                 1.8129
 Red. Mass:       1.1107                 1.0675                 1.4018
 IR Intens:        8.802                 20.599                164.410
 Frequency:      1590.19                3056.48                3058.58
 Force Cnst:     15.2158                 5.8646                 5.7054
 Red. Mass:      10.2129                 1.0655                 1.0351
 IR Intens:     1251.059                 23.804                 24.793
 Frequency:      3100.80                3126.33                3136.22
 Force Cnst:      6.0076                 6.3137                 6.3856
 Red. Mass:       1.0605                 1.0964                 1.1019
 IR Intens:       20.685                 29.443                 25.710
 Frequency:      3147.91                3178.08                3845.93
 Force Cnst:      6.4502                 6.5773                 9.3017
 Red. Mass:       1.1048                 1.1053                 1.0674
 IR Intens:       33.132                 56.532                 43.627

 STANDARD THERMODYNAMIC QUANTITIES AT   298.15 K  AND     1.00 ATM

   This Molecule has  1 Imaginary Frequencies
   Zero point vibrational energy:       81.205 kcal/mol

   Atom    1 Element C  Has Mass   12.00000
   Atom    2 Element O  Has Mass   15.99491
   Atom    3 Element C  Has Mass   12.00000
   Atom    4 Element H  Has Mass    1.00783
   Atom    5 Element H  Has Mass    1.00783
   Atom    6 Element H  Has Mass    1.00783
   Atom    7 Element C  Has Mass   12.00000
   Atom    8 Element H  Has Mass    1.00783
   Atom    9 Element H  Has Mass    1.00783
   Atom   10 Element C  Has Mass   12.00000
   Atom   11 Element H  Has Mass    1.00783
   Atom   12 Element H  Has Mass    1.00783
   Atom   13 Element C  Has Mass   12.00000
   Atom   14 Element O  Has Mass   15.99491
   Atom   15 Element O  Has Mass   15.99491
   Atom   16 Element O  Has Mass   15.99491
   Atom   17 Element O  Has Mass   15.99491
   Atom   18 Element H  Has Mass    1.00783
   Molecular Mass:   148.037190 amu
   Principal axes and moments of inertia in amu*Bohr^2:
                             1           2           3
    Eigenvalues --      705.15770  2921.51265  3240.51934
          X               0.95448     0.28121    -0.09945
          Y              -0.26338     0.95108     0.16150
          Z               0.14000    -0.12795     0.98185
   Rotational Symmetry Number is   1
   The Molecule is an Asymmetric Top
   Translational Enthalpy:        0.889 kcal/mol
   Rotational Enthalpy:           0.889 kcal/mol
   Vibrational Enthalpy:         86.677 kcal/mol
   gas constant (RT):             0.592 kcal/mol
   Translational Entropy:        40.887  cal/mol.K
   Rotational Entropy:           30.280  cal/mol.K
   Vibrational Entropy:          36.933  cal/mol.K

   Total Enthalpy:               89.047 kcal/mol
   Total Entropy:               108.100  cal/mol.K

 Total job time:  71045.35s(wall), 495178.27s(cpu)
        *  Thank you very much for using Q-Chem.  Have a nice day.  *
