 Q-Chem 5.0, Q-Chem, Inc., Pleasanton, CA (2017)
 Q-Chem 5.0.2 for Intel X86 EM64T Linux

User input:
--------------------------------------------------------------
$molecule
0 1
C        0.4728262056    1.2273296706   -0.9612871092
C        0.4592250810   -0.3037697511   -0.9109853816
H        0.6964881560    1.6692182562    0.0139374516
H        1.2039136494    1.5764603039   -1.6977184306
H       -0.5084066543    1.5811419721   -1.2889346031
C       -0.4410076899   -0.8754472963    0.1998134195
C       -1.9156285632   -0.5283475913   -0.0046813386
H       -0.3113116635   -1.9631058261    0.1728178066
H       -0.1223975007   -0.5174376943    1.1836063557
H       -2.1915935895   -0.6400023857   -1.0568461649
H       -2.5310926996   -1.2360745897    0.5650454740
O        0.2965934950   -0.8839339637   -2.0869055245
O        1.8345354497   -0.7071352594   -0.2765181692
O        2.9201513258   -0.3804343614   -1.1536346616
H        3.0203334680    0.5810816134   -1.0656163285
C       -2.3285504320    0.8668188395    0.4762787477
O       -3.1680230589    1.5036524769   -0.2232830766
O       -1.8424430588    1.2972739982    1.5591463160
K       -3.0595269199    3.6753421790    1.3335546546
K        2.1146525998   -2.8613006808   -2.2667771962
O        2.2992600282   -2.3667793768   -4.9513269704
H        1.9826279208   -1.4390886669   -4.8491214015
H        3.0512393526   -2.3249212972   -5.5509002604
O        4.8069425543   -1.7887804075    0.4662321895
H        5.6944378623   -1.4182049612    0.5354965246
H        4.2962646568   -1.1519480442   -0.0649322435
O        1.7442884839   -5.1408461189   -0.7255894153
H        2.6883453373   -5.0102197677   -0.5269469351
H        1.3176334398   -5.3107463283    0.1209160792
O        4.3014955910   -4.0771780622   -0.9463810826
H        5.0801258054   -4.5353969548   -1.2810392529
H        4.6335304281   -3.3395625370   -0.3898184507
O        2.4402326637    0.4780247711    2.2314080743
H        1.6818316929    1.0389639568    2.4290226987
H        2.2128819236    0.0536654755    1.3834785283
O        1.2701567824    0.0611137638   -4.2564850967
H        1.9527542646    0.7064625944   -4.0429674742
H        0.8827645712   -0.2376749905   -3.3562993031
$end

$rem
jobtype               force
method                wb97x-v
basis                 gen
symmetry              off
sym_ignore            true
incdft                false
incfock               0
!scf_algorithm        diis_gdm
scf_convergence       8
thresh                14
!purecart             112
max_scf_cycles        1000
geom_opt_max_cycles   500
geom_opt_dmax         100
geom_opt_tol_gradient 10
solvent_method        pcm
ideriv                1
rpath_tol_displacement 1000
rpath_max_cycles      50
rpath_direction       1
!scf_guess            read
scf_guess             read
geom_opt_hessian      read
$end

$pcm
theory              cosmo
method              iswig
Radii               bondi
vdwScale            1.20
hpoints             110
heavypoints         110
$end

$solvent
dielectric 78.400000
$end

$basis
****
H 0
S 3 1.00
34.061341      .60251978E-02
5.1235746      .45021094E-01
1.1646626      .20189726
S 1 1.00
.32723041      1.0000000
S 1 1.00
.10307241      1.0000000
P 1 1.00
.80   1.00
****
C 0
S 6 1.00
13575.349682      .22245814352E-03
2035.2333680      .17232738252E-02
463.22562359      .89255715314E-02
131.20019598      .35727984502E-01
42.853015891      .11076259931
15.584185766      .24295627626
S 2 1.00
6.2067138508      .41440263448
2.5764896527      .23744968655
S 1 1.00
.57696339419      1.0000000000
S 1 1.00
.22972831358      1.0000000000
S 1 1.00
.95164440028E-01  1.0000000000
P 4 1.00
34.697232244      .53333657805E-02
7.9582622826      .35864109092E-01
2.3780826883      .14215873329
.81433208183      .34270471845
P 1 1.00
.28887547253      .46445822433
P 1 1.00
.10056823671      .24955789874
D 1 1.00
.80   1.00
****
O 0
S 6 1.00
27032.382631      .21726302465E-03
4052.3871392      .16838662199E-02
922.32722710      .87395616265E-02
261.24070989      .35239968808E-01
85.354641351      .11153519115
31.035035245      .25588953961
S 2 1.00
12.260860728      .39768730901
4.9987076005      .24627849430
S 1 1.00
1.1703108158      1.0000000000
S 1 1.00
.46474740994      1.0000000000
S 1 1.00
.18504536357      1.0000000000
P 4 1.00
63.274954801      .60685103418E-02
14.627049379      .41912575824E-01
4.4501223456      .16153841088
1.5275799647      .35706951311
P 1 1.00
.52935117943      .44794207502
P 1 1.00
.17478421270      .24446069663
D 1 1.00
1.20   1.00
****
K     0
S   8   1.00
153976.1832500              0.23662636107E-03
23082.4976720              0.18342929137E-02
5253.2344745              0.95310527769E-02
1486.9550133              0.38638406980E-01
484.06333726             0.12480768502
173.56653980             0.29278861009
67.116381464            0.40633425860
26.339502054            0.2007721586
S   4   1.00
172.87693567            -0.24200960936E-01
53.058649063           -0.11553095040
7.9212753964           0.57455545175
3.2108880472           0.57023185107
S   2   1.00
4.5662070895          -0.22615763466
0.70209907282          0.75528392045
S   1   1.00
0.28258942635          1.0000000
S   1   1.00
0.035805824617         1.0000000
S   1   1.00
0.015819213245         1.0000000
P   6   1.00
728.18449873             0.26150689792E-02
172.13265061             0.20673630835E-01
54.829847075            0.93205603870E-01
20.166266494            0.25436518210
7.8610728806           0.39131132810
3.1105213132           0.22481345943
P   3   1.00
11.757337492           -0.25777289217E-01
1.5139617411           0.57359428604
0.58328591795          1.0798320002
P   1   1.00
0.21570478076          1.0000000
P   1   1.00
0.0417370              1.0000000
****
$end

--------------------------------------------------------------

             Standard Nuclear Orientation (Angstroms)
    I     Atom           X                Y                Z
 ----------------------------------------------------------------
    1      C       0.4728262056     1.2273296706    -0.9612871092
    2      C       0.4592250810    -0.3037697511    -0.9109853816
    3      H       0.6964881560     1.6692182562     0.0139374516
    4      H       1.2039136494     1.5764603039    -1.6977184306
    5      H      -0.5084066543     1.5811419721    -1.2889346031
    6      C      -0.4410076899    -0.8754472963     0.1998134195
    7      C      -1.9156285632    -0.5283475913    -0.0046813386
    8      H      -0.3113116635    -1.9631058261     0.1728178066
    9      H      -0.1223975007    -0.5174376943     1.1836063557
   10      H      -2.1915935895    -0.6400023857    -1.0568461649
   11      H      -2.5310926996    -1.2360745897     0.5650454740
   12      O       0.2965934950    -0.8839339637    -2.0869055245
   13      O       1.8345354497    -0.7071352594    -0.2765181692
   14      O       2.9201513258    -0.3804343614    -1.1536346616
   15      H       3.0203334680     0.5810816134    -1.0656163285
   16      C      -2.3285504320     0.8668188395     0.4762787477
   17      O      -3.1680230589     1.5036524769    -0.2232830766
   18      O      -1.8424430588     1.2972739982     1.5591463160
   19      K      -3.0595269199     3.6753421790     1.3335546546
   20      K       2.1146525998    -2.8613006808    -2.2667771962
   21      O       2.2992600282    -2.3667793768    -4.9513269704
   22      H       1.9826279208    -1.4390886669    -4.8491214015
   23      H       3.0512393526    -2.3249212972    -5.5509002604
   24      O       4.8069425543    -1.7887804075     0.4662321895
   25      H       5.6944378623    -1.4182049612     0.5354965246
   26      H       4.2962646568    -1.1519480442    -0.0649322435
   27      O       1.7442884839    -5.1408461189    -0.7255894153
   28      H       2.6883453373    -5.0102197677    -0.5269469351
   29      H       1.3176334398    -5.3107463283     0.1209160792
   30      O       4.3014955910    -4.0771780622    -0.9463810826
   31      H       5.0801258054    -4.5353969548    -1.2810392529
   32      H       4.6335304281    -3.3395625370    -0.3898184507
   33      O       2.4402326637     0.4780247711     2.2314080743
   34      H       1.6818316929     1.0389639568     2.4290226987
   35      H       2.2128819236     0.0536654755     1.3834785283
   36      O       1.2701567824     0.0611137638    -4.2564850967
   37      H       1.9527542646     0.7064625944    -4.0429674742
   38      H       0.8827645712    -0.2376749905    -3.3562993031
 ----------------------------------------------------------------

   14   -2229.9754851723      4.84E-09 Convergence criterion met
 Total energy in the final basis set = -2229.97548517

                    Orbital Energies (a.u.)
 --------------------------------------------------------------

 Alpha MOs
 -- Occupied --
*******-129.703 -19.279 -19.260 -19.217 -19.212 -19.204 -19.196
-19.195 -19.184 -19.149 -19.149 -19.128 -13.300 -13.240 -10.635
-10.635 -10.634 -10.576 -10.576 -10.575 -10.352 -10.351 -10.254
-10.251 -10.247  -1.507  -1.449  -1.256  -1.160  -1.150  -1.138
 -1.129  -1.127  -1.124  -1.110  -1.092  -1.061  -1.007  -0.901
 -0.862  -0.859  -0.856  -0.844  -0.806  -0.803  -0.801  -0.773
 -0.680  -0.655  -0.646  -0.645  -0.643  -0.634  -0.626  -0.615
 -0.601  -0.586  -0.574  -0.561  -0.540  -0.527  -0.526  -0.523
 -0.520  -0.507  -0.504  -0.495  -0.492  -0.488  -0.481  -0.467
 -0.461  -0.442  -0.440  -0.434  -0.429  -0.426  -0.421  -0.418
 -0.414  -0.406  -0.395  -0.357  -0.352  -0.344  -0.340  -0.322

          Ground-State Mulliken Net Atomic Charges

     Atom                 Charge (a.u.)
  ----------------------------------------
      1 C                    -0.404314
      2 C                     0.085305
      3 H                     0.113019
      4 H                     0.126784
      5 H                     0.130949
      6 C                    -0.171411
      7 C                    -0.218701
      8 H                     0.116829
      9 H                     0.085366
     10 H                     0.108552
     11 H                     0.151140
     12 O                    -0.603282
     13 O                    -0.281703
     14 O                    -0.333983
     15 H                     0.335779
     16 C                     0.138905
     17 O                    -0.561025
     18 O                    -0.557188
     19 K                     0.944081
     20 K                     0.876436
     21 O                    -0.640684
     22 H                     0.296083
     23 H                     0.309932
     24 O                    -0.600299
     25 H                     0.324387
     26 H                     0.305647
     27 O                    -0.622339
     28 H                     0.305847
     29 H                     0.314963
     30 O                    -0.643744
     31 H                     0.327613
     32 H                     0.309843
     33 O                    -0.598876
     34 H                     0.299798
     35 H                     0.288180
     36 O                    -0.644971
     37 H                     0.300613
     38 H                     0.286467
  ----------------------------------------
  Sum of atomic charges =    -0.000000

                    Cartesian Multipole Moments
 -----------------------------------------------------------------
    Charge (ESU x 10^10)
                -0.0000
    Dipole Moment (Debye)
         X       6.3342      Y       8.7364      Z       3.3991
       Tot      11.3138
    Quadrupole Moments (Debye-Ang)
        XX     -65.1053     XY     -46.7865     YY     -59.9086
        XZ     -46.8605     YZ      13.4767     ZZ    -144.2687

 Total job time:  382.41s(wall), 4505.82s(cpu)
        *  Thank you very much for using Q-Chem.  Have a nice day.  *
