 Q-Chem 5.0, Q-Chem, Inc., Pleasanton, CA (2017)
 Q-Chem 5.0.2 for Intel X86 EM64T Linux

User input:
--------------------------------------------------------------
$molecule
-2 1
O        0.8353580276    0.3146786961   -0.6992694387
C       -0.5118414529    0.5197382275   -0.8709788997
H       -0.7304818016    1.2739841916   -1.6596454728
H       -0.9839208174    0.9299279003    0.0519898287
H       -1.1635113206   -1.4957097235   -0.4517571401
C       -2.7826918211   -0.4601423967   -1.4455386350
O       -3.5282603635   -0.5045837890   -0.4269663587
O       -3.1692120338   -0.1458519304   -2.6061762507
O        0.8104666924    1.5647822761    1.7229141487
H        2.8351359587   -0.7648052643    0.6259967831
C        2.7048372194    0.1713247350    1.1674221324
H        3.2091179812    0.0977139971    2.1380674999
H        3.1443491157    0.9915741616    0.6015998431
C        1.2506533697    0.4593413012    1.4167176042
H       -0.8747074528   -1.1605627346   -2.1781617356
O        0.5672999336   -0.6625497499    1.7965054926
H       -0.3155274507   -0.3703312104    2.0678093627
C       -1.2970637830   -0.7585286931   -1.2505287618
$end

$rem
jobtype               freq
method                wb97x-v
basis                 def2-tzvpd
symmetry              off
sym_ignore            true
incdft                false
incfock               0
!scf_algorithm        diis_gdm
scf_convergence       8
thresh                14
!purecart             112
max_scf_cycles        1000
geom_opt_max_cycles   500
geom_opt_dmax         100
geom_opt_tol_gradient 10
solvent_method        pcm
ideriv                1
rpath_tol_displacement 1000
rpath_max_cycles      100
rpath_direction       1
!scf_guess            read
scf_guess             read
$end

$pcm
theory              cosmo
method              iswig
Radii               bondi
vdwScale            1.20
hpoints             110
heavypoints         110
$end

$solvent
dielectric 78.400000
$end

--------------------------------------------------------------

   17    -571.8005691337      4.59E-09 Convergence criterion met
 Total energy in the final basis set = -571.80056913
   16    -571.8005685020      2.02E-09 Convergence criterion met
 Total energy in the final basis set = -571.80056850
   14    -571.8005684114      4.32E-09 Convergence criterion met
 Total energy in the final basis set = -571.80056841
   16    -571.8005689054      1.84E-09 Convergence criterion met
 Total energy in the final basis set = -571.80056891
   16    -571.8005690966      2.35E-09 Convergence criterion met
 Total energy in the final basis set = -571.80056910
   16    -571.8005690066      2.63E-09 Convergence criterion met
 Total energy in the final basis set = -571.80056901
   16    -571.8005690071      5.00E-09 Convergence criterion met
 Total energy in the final basis set = -571.80056901
   15    -571.8005683720      4.86E-09 Convergence criterion met
 Total energy in the final basis set = -571.80056906
   17    -571.8005690224      1.10E-09 Convergence criterion met
 Total energy in the final basis set = -571.80056902
   14    -571.8005683253      9.46E-09 Convergence criterion met
 Total energy in the final basis set = -571.80056833
   14    -571.8005682924      6.69E-09 Convergence criterion met
 Total energy in the final basis set = -571.80056829
   14    -571.8005682317      5.14E-09 Convergence criterion met
 Total energy in the final basis set = -571.80056823
   14    -571.8005683346      6.20E-09 Convergence criterion met
 Total energy in the final basis set = -571.80056833
   14    -571.8005680716      6.61E-09 Convergence criterion met
 Total energy in the final basis set = -571.80056807
   14    -571.8005680348      5.62E-09 Convergence criterion met
 Total energy in the final basis set = -571.80056803

                    Orbital Energies (a.u.)
 --------------------------------------------------------------

 Alpha MOs
 -- Occupied --
-19.226 -19.163 -19.135 -19.135 -19.096 -10.387 -10.334 -10.266
-10.250 -10.228  -1.204  -1.137  -1.106  -1.042  -1.024  -0.861
 -0.836  -0.700  -0.686  -0.599  -0.585  -0.572  -0.565  -0.539
 -0.527  -0.505  -0.498  -0.491  -0.480  -0.470  -0.444  -0.433
 -0.427  -0.397  -0.360  -0.343  -0.336  -0.324  -0.286  -0.283

          Ground-State Mulliken Net Atomic Charges

     Atom                 Charge (a.u.)
  ----------------------------------------
      1 O                    -0.779416
      2 C                    -0.376747
      3 H                     0.205471
      4 H                     0.090880
      5 H                     0.066406
      6 C                     0.168365
      7 O                    -0.704581
      8 O                    -0.705368
      9 O                    -0.628209
     10 H                     0.173600
     11 C                    -0.786672
     12 H                     0.256290
     13 H                     0.205246
     14 C                     0.628684
     15 H                     0.147250
     16 O                    -0.432252
     17 H                     0.371747
     18 C                     0.099306
  ----------------------------------------
  Sum of atomic charges =    -2.000000

                    Cartesian Multipole Moments
 -----------------------------------------------------------------
    Charge (ESU x 10^10)
                -9.6064
    Dipole Moment (Debye)
         X      14.2185      Y      -2.5507      Z       8.1968
       Tot      16.6091
    Quadrupole Moments (Debye-Ang)
        XX    -132.0859     XY      -7.2348     YY     -75.0790
        XZ     -27.0933     YZ      -4.9331     ZZ     -94.1290

             Standard Nuclear Orientation (Angstroms)
    I     Atom           X                Y                Z
 ----------------------------------------------------------------
    1      O       0.8353580276     0.3146786961    -0.6992694387
    2      C      -0.5118414529     0.5197382275    -0.8709788997
    3      H      -0.7304818016     1.2739841916    -1.6596454728
    4      H      -0.9839208174     0.9299279003     0.0519898287
    5      H      -1.1635113206    -1.4957097235    -0.4517571401
    6      C      -2.7826918211    -0.4601423967    -1.4455386350
    7      O      -3.5282603635    -0.5045837890    -0.4269663587
    8      O      -3.1692120338    -0.1458519304    -2.6061762507
    9      O       0.8104666924     1.5647822761     1.7229141487
   10      H       2.8351359587    -0.7648052643     0.6259967831
   11      C       2.7048372194     0.1713247350     1.1674221324
   12      H       3.2091179812     0.0977139971     2.1380674999
   13      H       3.1443491157     0.9915741616     0.6015998431
   14      C       1.2506533697     0.4593413012     1.4167176042
   15      H      -0.8747074528    -1.1605627346    -2.1781617356
   16      O       0.5672999336    -0.6625497499     1.7965054926
   17      H      -0.3155274507    -0.3703312104     2.0678093627
   18      C      -1.2970637830    -0.7585286931    -1.2505287618
 ----------------------------------------------------------------

 Frequency:      -208.93                  26.90                  39.09
 Force Cnst:      0.2673                 0.0041                 0.0065
 Red. Mass:      10.3946                 9.5084                 7.2713
 IR Intens:      397.438                  3.168                  5.654
 Frequency:        43.25                  70.43                 175.40
 Force Cnst:      0.0061                 0.0106                 0.0647
 Red. Mass:       5.5617                 3.6261                 3.5672
 IR Intens:        2.233                  4.753                 20.421
 Frequency:       192.53                 204.88                 237.41
 Force Cnst:      0.0717                 0.0262                 0.1456
 Red. Mass:       3.2847                 1.0603                 4.3837
 IR Intens:        9.079                  1.364                 43.210
 Frequency:       279.20                 399.50                 430.55
 Force Cnst:      0.1998                 0.4809                 0.2184
 Red. Mass:       4.3509                 5.1145                 1.9998
 IR Intens:       31.314                 10.362                 30.953
 Frequency:       451.39                 459.92                 569.61
 Force Cnst:      0.2031                 0.3580                 0.7353
 Red. Mass:       1.6918                 2.8727                 3.8466
 IR Intens:       59.840                 16.225                125.731
 Frequency:       601.95                 669.26                 773.29
 Force Cnst:      0.7502                 1.3532                 3.2433
 Red. Mass:       3.5140                 5.1279                 9.2055
 IR Intens:      256.240                 52.781                 22.029
 Frequency:       790.88                 859.63                 947.96
 Force Cnst:      0.4338                 1.8078                 2.4163
 Red. Mass:       1.1771                 4.1523                 4.5637
 IR Intens:        2.282                 42.313                 10.209
 Frequency:      1003.39                1033.05                1037.70
 Force Cnst:      0.9521                 1.4461                 1.4689
 Red. Mass:       1.6051                 2.2998                 2.3152
 IR Intens:      121.003                179.232                 47.478
 Frequency:      1070.59                1140.12                1181.53
 Force Cnst:      1.0304                 4.7312                 1.6391
 Red. Mass:       1.5259                 6.1775                 1.9928
 IR Intens:       18.599                238.156                384.008
 Frequency:      1207.24                1261.28                1302.40
 Force Cnst:      1.1237                 1.3790                 1.0862
 Red. Mass:       1.3087                 1.4712                 1.0868
 IR Intens:       36.102                  7.832                  3.269
 Frequency:      1321.89                1383.09                1404.73
 Force Cnst:      1.8518                 1.4762                 1.7198
 Red. Mass:       1.7987                 1.3097                 1.4792
 IR Intens:       77.355                166.827                 98.083
 Frequency:      1421.42                1458.15                1467.80
 Force Cnst:      3.8837                 1.3535                 1.3323
 Red. Mass:       3.2625                 1.0804                 1.0496
 IR Intens:      201.471                 10.095                  4.392
 Frequency:      1476.08                1501.73                1561.56
 Force Cnst:      1.7951                 1.4479                14.0699
 Red. Mass:       1.3984                 1.0897                 9.7931
 IR Intens:       90.767                  5.246               1302.247
 Frequency:      1688.95                2847.24                2847.73
 Force Cnst:     12.9422                 5.0672                 5.2047
 Red. Mass:       7.7006                 1.0609                 1.0893
 IR Intens:      709.504                342.604                219.921
 Frequency:      3050.96                3063.11                3103.05
 Force Cnst:      5.8048                 5.7744                 6.2749
 Red. Mass:       1.0584                 1.0445                 1.1061
 IR Intens:       67.385                 25.604                 87.298
 Frequency:      3149.02                3187.71                3784.91
 Force Cnst:      6.3750                 6.6202                 8.9847
 Red. Mass:       1.0911                 1.1058                 1.0645
 IR Intens:       21.001                 19.242                 95.685

 STANDARD THERMODYNAMIC QUANTITIES AT   298.15 K  AND     1.00 ATM

   This Molecule has  1 Imaginary Frequencies
   Zero point vibrational energy:       83.172 kcal/mol

   Atom    1 Element O  Has Mass   15.99491
   Atom    2 Element C  Has Mass   12.00000
   Atom    3 Element H  Has Mass    1.00783
   Atom    4 Element H  Has Mass    1.00783
   Atom    5 Element H  Has Mass    1.00783
   Atom    6 Element C  Has Mass   12.00000
   Atom    7 Element O  Has Mass   15.99491
   Atom    8 Element O  Has Mass   15.99491
   Atom    9 Element O  Has Mass   15.99491
   Atom   10 Element H  Has Mass    1.00783
   Atom   11 Element C  Has Mass   12.00000
   Atom   12 Element H  Has Mass    1.00783
   Atom   13 Element H  Has Mass    1.00783
   Atom   14 Element C  Has Mass   12.00000
   Atom   15 Element H  Has Mass    1.00783
   Atom   16 Element O  Has Mass   15.99491
   Atom   17 Element H  Has Mass    1.00783
   Atom   18 Element C  Has Mass   12.00000
   Molecular Mass:   148.037190 amu
   Principal axes and moments of inertia in amu*Bohr^2:
                             1           2           3
    Eigenvalues --      615.94346  3189.10594  3391.20663
          X               0.82621    -0.53095    -0.18832
          Y               0.14530    -0.12214     0.98182
          Z               0.54430     0.83855     0.02376
   Rotational Symmetry Number is   1
   The Molecule is an Asymmetric Top
   Translational Enthalpy:        0.889 kcal/mol
   Rotational Enthalpy:           0.889 kcal/mol
   Vibrational Enthalpy:         88.302 kcal/mol
   gas constant (RT):             0.592 kcal/mol
   Translational Entropy:        40.887  cal/mol.K
   Rotational Entropy:           30.278  cal/mol.K
   Vibrational Entropy:          36.692  cal/mol.K

   Total Enthalpy:               90.672 kcal/mol
   Total Entropy:               107.857  cal/mol.K

 Total job time:  63380.29s(wall), 469111.24s(cpu)
        *  Thank you very much for using Q-Chem.  Have a nice day.  *
