 Q-Chem 5.0, Q-Chem, Inc., Pleasanton, CA (2017)
 Q-Chem 5.0.2 for Intel X86 EM64T Linux

User input:
--------------------------------------------------------------
$molecule
-2 1
C        0.3858673364    1.1444507253    0.0931625737
C        0.7479832851    2.5849591028    0.4853677126
O        1.9661180698    2.8286165162    0.7424118058
O       -0.1731973909    3.4331060099    0.4969938468
C        1.3462786922    0.0916854964    0.6331551083
H        0.3796168295    1.1030963116   -1.0042757755
H       -0.6333906105    0.9287665114    0.4264264133
O       -1.7900894399   -2.0735425675    1.1399082494
H        1.3015147371    0.0809648318    1.7326588541
H        1.0557435998   -0.9022571484    0.2800700329
C       -2.1484099789   -1.5316373333    0.0613362249
C       -1.4359220873   -1.9529926247   -1.2264901148
H       -2.1719210596   -2.2957706470   -1.9597029076
H       -0.7060884972   -2.7442105192   -1.0461620168
H       -0.9263823780   -1.0852284445   -1.6571919820
O       -3.0503207331   -0.6586583559   -0.0519885047
O        2.6843484763    0.3281381718    0.2012204409
H        2.7888429166    1.2914996857    0.3626021976
$end

$rem
jobtype               freq
method                wb97x-v
basis                 def2-tzvpd
symmetry              off
sym_ignore            true
incdft                false
incfock               0
!scf_algorithm        diis_gdm
scf_convergence       8
thresh                14
!purecart             112
max_scf_cycles        1000
geom_opt_max_cycles   500
geom_opt_dmax         100
geom_opt_tol_gradient 10
solvent_method        pcm
ideriv                1
rpath_tol_displacement 1000
rpath_max_cycles      100
rpath_direction       1
!scf_guess            read
scf_guess             read
$end

$pcm
theory              cosmo
method              iswig
Radii               bondi
vdwScale            1.20
hpoints             110
heavypoints         110
$end

$solvent
dielectric 78.400000
$end

--------------------------------------------------------------

   17    -571.8551352530      2.10E-09 Convergence criterion met
 Total energy in the final basis set = -571.85513525
   14    -571.8551341933      3.45E-09 Convergence criterion met
 Total energy in the final basis set = -571.85513419
   14    -571.8551342270      3.85E-09 Convergence criterion met
 Total energy in the final basis set = -571.85513423
   14    -571.8551344095      3.74E-09 Convergence criterion met
 Total energy in the final basis set = -571.85513441
   14    -571.8551344220      3.87E-09 Convergence criterion met
 Total energy in the final basis set = -571.85513442
   14    -571.8551342780      4.48E-09 Convergence criterion met
 Total energy in the final basis set = -571.85513428
   13    -571.8551343070      9.72E-09 Convergence criterion met
 Total energy in the final basis set = -571.85513431
   14    -571.8551338471      5.16E-09 Convergence criterion met
 Total energy in the final basis set = -571.85513506
   14    -571.8551350714      3.50E-09 Convergence criterion met
 Total energy in the final basis set = -571.85513507
   16    -571.8551351269      2.88E-09 Convergence criterion met
 Total energy in the final basis set = -571.85513513
   16    -571.8551351112      2.69E-09 Convergence criterion met
 Total energy in the final basis set = -571.85513511
   15    -571.8551345336      7.36E-09 Convergence criterion met
 Total energy in the final basis set = -571.85513453
   14    -571.8551345154      3.34E-09 Convergence criterion met
 Total energy in the final basis set = -571.85513452
   15    -571.8551351917      5.86E-09 Convergence criterion met
 Total energy in the final basis set = -571.85513519
   16    -571.8551351958      4.38E-09 Convergence criterion met
 Total energy in the final basis set = -571.85513520

                    Orbital Energies (a.u.)
 --------------------------------------------------------------

 Alpha MOs
 -- Occupied --
-19.189 -19.151 -19.147 -19.140 -19.138 -10.350 -10.342 -10.298
-10.251 -10.242  -1.156  -1.143  -1.128  -1.058  -1.048  -0.873
 -0.832  -0.746  -0.619  -0.605  -0.603  -0.561  -0.542  -0.532
 -0.529  -0.528  -0.523  -0.507  -0.498  -0.474  -0.456  -0.447
 -0.430  -0.369  -0.356  -0.348  -0.341  -0.339  -0.338  -0.330

          Ground-State Mulliken Net Atomic Charges

     Atom                 Charge (a.u.)
  ----------------------------------------
      1 C                     0.184455
      2 C                     0.139294
      3 O                    -0.759607
      4 O                    -0.688193
      5 C                    -0.208929
      6 H                     0.162910
      7 H                     0.032856
      8 O                    -0.709758
      9 H                     0.159752
     10 H                     0.118843
     11 C                     0.437535
     12 C                    -0.517366
     13 H                     0.220769
     14 H                     0.205505
     15 H                     0.114915
     16 O                    -0.717614
     17 O                    -0.545574
     18 H                     0.370209
  ----------------------------------------
  Sum of atomic charges =    -2.000000

                    Cartesian Multipole Moments
 -----------------------------------------------------------------
    Charge (ESU x 10^10)
                -9.6064
    Dipole Moment (Debye)
         X       5.6895      Y      -8.5453      Z      -6.8075
       Tot      12.3181
    Quadrupole Moments (Debye-Ang)
        XX    -120.9249     XY     -20.6620     YY    -127.8699
        XZ       4.2311     YZ      -0.9940     ZZ     -70.9951

             Standard Nuclear Orientation (Angstroms)
    I     Atom           X                Y                Z
 ----------------------------------------------------------------
    1      C       0.3858673364     1.1444507253     0.0931625737
    2      C       0.7479832851     2.5849591028     0.4853677126
    3      O       1.9661180698     2.8286165162     0.7424118058
    4      O      -0.1731973909     3.4331060099     0.4969938468
    5      C       1.3462786922     0.0916854964     0.6331551083
    6      H       0.3796168295     1.1030963116    -1.0042757755
    7      H      -0.6333906105     0.9287665114     0.4264264133
    8      O      -1.7900894399    -2.0735425675     1.1399082494
    9      H       1.3015147371     0.0809648318     1.7326588541
   10      H       1.0557435998    -0.9022571484     0.2800700329
   11      C      -2.1484099789    -1.5316373333     0.0613362249
   12      C      -1.4359220873    -1.9529926247    -1.2264901148
   13      H      -2.1719210596    -2.2957706470    -1.9597029076
   14      H      -0.7060884972    -2.7442105192    -1.0461620168
   15      H      -0.9263823780    -1.0852284445    -1.6571919820
   16      O      -3.0503207331    -0.6586583559    -0.0519885047
   17      O       2.6843484763     0.3281381718     0.2012204409
   18      H       2.7888429166     1.2914996857     0.3626021976
 ----------------------------------------------------------------

 Frequency:        26.22                  38.13                  44.73
 Force Cnst:      0.0023                 0.0025                 0.0060
 Red. Mass:       5.7191                 2.8915                 5.1065
 IR Intens:        8.762                  7.179                  5.996
 Frequency:        49.71                  54.27                  58.24
 Force Cnst:      0.0035                 0.0094                 0.0135
 Red. Mass:       2.4176                 5.3881                 6.7405
 IR Intens:        9.927                  8.233                  7.477
 Frequency:        58.89                  83.57                 195.18
 Force Cnst:      0.0159                 0.0071                 0.0559
 Red. Mass:       7.7686                 1.7218                 2.4925
 IR Intens:        3.704                  9.115                 25.296
 Frequency:       271.77                 378.03                 455.95
 Force Cnst:      0.1800                 0.5944                 0.3747
 Red. Mass:       4.1360                 7.0590                 3.0592
 IR Intens:       28.798                  1.395                  2.231
 Frequency:       505.47                 602.33                 629.19
 Force Cnst:      0.3079                 0.8844                 0.5475
 Red. Mass:       2.0451                 4.1377                 2.3474
 IR Intens:        8.208                 30.316                 13.972
 Frequency:       643.53                 724.82                 737.88
 Force Cnst:      1.4297                 1.0331                 0.3611
 Red. Mass:       5.8594                 3.3376                 1.1256
 IR Intens:       36.247                 39.252                156.648
 Frequency:       867.32                 899.63                 922.11
 Force Cnst:      1.3714                 1.3211                 3.0997
 Red. Mass:       3.0942                 2.7705                 6.1873
 IR Intens:       49.081                 21.654                 24.557
 Frequency:       987.28                1023.76                1060.85
 Force Cnst:      1.2086                 0.9057                 1.2997
 Red. Mass:       2.1045                 1.4667                 1.9601
 IR Intens:       14.344                 20.583                 15.669
 Frequency:      1077.54                1100.77                1219.72
 Force Cnst:      1.7715                 1.8228                 1.0633
 Red. Mass:       2.5896                 2.5533                 1.2131
 IR Intens:       41.118                136.746                 39.680
 Frequency:      1236.42                1341.22                1360.15
 Force Cnst:      1.1432                 1.8153                 1.5010
 Red. Mass:       1.2692                 1.7128                 1.3770
 IR Intens:       95.813                 26.332                  7.139
 Frequency:      1379.63                1433.06                1437.90
 Force Cnst:      1.4626                 3.1109                 1.5537
 Red. Mass:       1.3042                 2.5710                 1.2754
 IR Intens:       48.163                343.277                 87.432
 Frequency:      1448.31                1459.21                1464.97
 Force Cnst:      3.7524                 1.7500                 1.7035
 Red. Mass:       3.0362                 1.3950                 1.3473
 IR Intens:      231.473                108.786                477.381
 Frequency:      1468.73                1504.95                1583.89
 Force Cnst:      1.3686                 1.4769                11.5876
 Red. Mass:       1.0768                 1.1068                 7.8396
 IR Intens:       27.189                  8.013               1298.293
 Frequency:      1603.10                3007.86                3051.46
 Force Cnst:      9.5666                 5.7050                 5.8491
 Red. Mass:       6.3181                 1.0703                 1.0662
 IR Intens:      880.899                103.931                 26.873
 Frequency:      3058.55                3100.43                3118.68
 Force Cnst:      5.7095                 6.1975                 6.2866
 Red. Mass:       1.0359                 1.0943                 1.0970
 IR Intens:       15.260                 73.579                 23.957
 Frequency:      3128.48                3149.98                3464.53
 Force Cnst:      6.3478                 6.4574                 7.5444
 Red. Mass:       1.1008                 1.1046                 1.0668
 IR Intens:       24.271                 42.875                671.348

 STANDARD THERMODYNAMIC QUANTITIES AT   298.15 K  AND     1.00 ATM

   This Molecule has  0 Imaginary Frequencies
   Zero point vibrational energy:       83.656 kcal/mol

   Atom    1 Element C  Has Mass   12.00000
   Atom    2 Element C  Has Mass   12.00000
   Atom    3 Element O  Has Mass   15.99491
   Atom    4 Element O  Has Mass   15.99491
   Atom    5 Element C  Has Mass   12.00000
   Atom    6 Element H  Has Mass    1.00783
   Atom    7 Element H  Has Mass    1.00783
   Atom    8 Element O  Has Mass   15.99491
   Atom    9 Element H  Has Mass    1.00783
   Atom   10 Element H  Has Mass    1.00783
   Atom   11 Element C  Has Mass   12.00000
   Atom   12 Element C  Has Mass   12.00000
   Atom   13 Element H  Has Mass    1.00783
   Atom   14 Element H  Has Mass    1.00783
   Atom   15 Element H  Has Mass    1.00783
   Atom   16 Element O  Has Mass   15.99491
   Atom   17 Element O  Has Mass   15.99491
   Atom   18 Element H  Has Mass    1.00783
   Molecular Mass:   148.037190 amu
   Principal axes and moments of inertia in amu*Bohr^2:
                             1           2           3
    Eigenvalues --      988.62212  3212.32138  3813.47168
          X               0.67164     0.73964    -0.04276
          Y               0.73402    -0.67215    -0.09711
          Z               0.10057    -0.03384     0.99435
   Rotational Symmetry Number is   1
   The Molecule is an Asymmetric Top
   Translational Enthalpy:        0.889 kcal/mol
   Rotational Enthalpy:           0.889 kcal/mol
   Vibrational Enthalpy:         89.651 kcal/mol
   gas constant (RT):             0.592 kcal/mol
   Translational Entropy:        40.887  cal/mol.K
   Rotational Entropy:           30.871  cal/mol.K
   Vibrational Entropy:          47.856  cal/mol.K

   Total Enthalpy:               92.021 kcal/mol
   Total Entropy:               119.614  cal/mol.K

 Total job time:  42487.68s(wall), 446272.66s(cpu)
        *  Thank you very much for using Q-Chem.  Have a nice day.  *
