 Q-Chem 5.0, Q-Chem, Inc., Pleasanton, CA (2017)
 Q-Chem 5.0.2 for Intel X86 EM64T Linux

User input:
--------------------------------------------------------------
$molecule
-2 1
O       -0.2062626506    0.5930440079   -2.9217890986
C       -0.9793976066    0.6958802960   -1.7927891354
H       -1.8720350043    1.3509792477   -1.9337980431
H       -0.4328286424    1.1445194159   -0.9315130508
H       -0.6706866087   -1.3276763290   -1.1042585291
C       -2.3614384095   -0.5122500332   -0.0385237379
O       -1.7388146426   -0.4440857004    1.0834598673
O       -3.6001016157   -0.4099446370   -0.1308092658
O        0.8971013713    1.4236788957    1.8021673715
H        3.2199133927   -0.0631086571    0.4584185764
C        2.8940370901    0.1240456411    1.4857156009
H        3.1387119730   -0.7619301445    2.0766225973
H        3.4147468631    0.9951600119    1.8815758104
C        1.4023277120    0.3506305225    1.4942124407
H       -2.1396762538   -1.1092029906   -2.0884691439
O        0.7131696393   -0.7047018562    1.1336915365
H       -0.3513580451   -0.5323548756    1.0923194255
C       -1.5249448080   -0.6698871517   -1.2967813149
$end

$rem
jobtype               freq
method                wb97x-v
basis                 def2-tzvpd
symmetry              off
sym_ignore            true
incdft                false
incfock               0
!scf_algorithm        diis_gdm
scf_convergence       8
thresh                14
!purecart             112
max_scf_cycles        1000
geom_opt_max_cycles   500
geom_opt_dmax         100
geom_opt_tol_gradient 10
solvent_method        pcm
ideriv                1
rpath_tol_displacement 1000
rpath_max_cycles      100
rpath_direction       1
!scf_guess            read
scf_guess             read
$end

$pcm
theory              cosmo
method              iswig
Radii               bondi
vdwScale            1.20
hpoints             110
heavypoints         110
$end

$solvent
dielectric 78.400000
$end

--------------------------------------------------------------

   17    -571.8225437649      5.29E-09 Convergence criterion met
 Total energy in the final basis set = -571.82254376
   16    -571.8225435035      4.77E-09 Convergence criterion met
 Total energy in the final basis set = -571.82254350
   15    -571.8225434800      2.35E-09 Convergence criterion met
 Total energy in the final basis set = -571.82254348
   15    -571.8225436645      8.88E-09 Convergence criterion met
 Total energy in the final basis set = -571.82254366
   15    -571.8225436596      3.47E-09 Convergence criterion met
 Total energy in the final basis set = -571.82254366
   15    -571.8225432645      3.31E-09 Convergence criterion met
 Total energy in the final basis set = -571.82254326
   15    -571.8225433024      4.24E-09 Convergence criterion met
 Total energy in the final basis set = -571.82254330
   14    -571.8225428851      9.01E-09 Convergence criterion met
 Total energy in the final basis set = -571.82254364
   15    -571.8225436542      9.97E-09 Convergence criterion met
 Total energy in the final basis set = -571.82254365
   14    -571.8225427538      9.22E-09 Convergence criterion met
 Total energy in the final basis set = -571.82254275
   14    -571.8225427494      7.66E-09 Convergence criterion met
 Total energy in the final basis set = -571.82254275
   14    -571.8225429549      8.45E-09 Convergence criterion met
 Total energy in the final basis set = -571.82254295
   14    -571.8225429522      7.45E-09 Convergence criterion met
 Total energy in the final basis set = -571.82254295
   14    -571.8225428158      8.28E-09 Convergence criterion met
 Total energy in the final basis set = -571.82254282
   14    -571.8225428331      7.85E-09 Convergence criterion met
 Total energy in the final basis set = -571.82254283

                    Orbital Energies (a.u.)
 --------------------------------------------------------------

 Alpha MOs
 -- Occupied --
-19.211 -19.181 -19.164 -19.152 -19.085 -10.386 -10.353 -10.269
-10.260 -10.235  -1.207  -1.162  -1.114  -1.067  -1.013  -0.866
 -0.845  -0.707  -0.689  -0.620  -0.592  -0.575  -0.571  -0.555
 -0.548  -0.519  -0.514  -0.502  -0.480  -0.461  -0.447  -0.436
 -0.431  -0.403  -0.372  -0.365  -0.358  -0.343  -0.280  -0.279

          Ground-State Mulliken Net Atomic Charges

     Atom                 Charge (a.u.)
  ----------------------------------------
      1 O                    -0.918892
      2 C                    -0.415806
      3 H                     0.138711
      4 H                     0.020223
      5 H                     0.217064
      6 C                     0.299755
      7 O                    -0.682284
      8 O                    -0.664832
      9 O                    -0.584759
     10 H                     0.226624
     11 C                    -0.791079
     12 H                     0.252537
     13 H                     0.222564
     14 C                     0.611015
     15 H                     0.148211
     16 O                    -0.474945
     17 H                     0.380668
     18 C                     0.015224
  ----------------------------------------
  Sum of atomic charges =    -2.000000

                    Cartesian Multipole Moments
 -----------------------------------------------------------------
    Charge (ESU x 10^10)
                -9.6064
    Dipole Moment (Debye)
         X      12.4272      Y      -3.6850      Z       8.2247
       Tot      15.3512
    Quadrupole Moments (Debye-Ang)
        XX    -101.7292     XY      -5.0707     YY     -74.3208
        XZ       3.3244     YZ       3.9222     ZZ    -116.0231

             Standard Nuclear Orientation (Angstroms)
    I     Atom           X                Y                Z
 ----------------------------------------------------------------
    1      O      -0.2062626506     0.5930440079    -2.9217890986
    2      C      -0.9793976066     0.6958802960    -1.7927891354
    3      H      -1.8720350043     1.3509792477    -1.9337980431
    4      H      -0.4328286424     1.1445194159    -0.9315130508
    5      H      -0.6706866087    -1.3276763290    -1.1042585291
    6      C      -2.3614384095    -0.5122500332    -0.0385237379
    7      O      -1.7388146426    -0.4440857004     1.0834598673
    8      O      -3.6001016157    -0.4099446370    -0.1308092658
    9      O       0.8971013713     1.4236788957     1.8021673715
   10      H       3.2199133927    -0.0631086571     0.4584185764
   11      C       2.8940370901     0.1240456411     1.4857156009
   12      H       3.1387119730    -0.7619301445     2.0766225973
   13      H       3.4147468631     0.9951600119     1.8815758104
   14      C       1.4023277120     0.3506305225     1.4942124407
   15      H      -2.1396762538    -1.1092029906    -2.0884691439
   16      O       0.7131696393    -0.7047018562     1.1336915365
   17      H      -0.3513580451    -0.5323548756     1.0923194255
   18      C      -1.5249448080    -0.6698871517    -1.2967813149
 ----------------------------------------------------------------

 Frequency:        36.84                  48.26                  56.16
 Force Cnst:      0.0026                 0.0094                 0.0061
 Red. Mass:       3.2513                 6.8258                 3.2974
 IR Intens:       17.079                  5.543                  0.420
 Frequency:        69.35                  87.03                 117.81
 Force Cnst:      0.0054                 0.0148                 0.0177
 Red. Mass:       1.8889                 3.3150                 2.1613
 IR Intens:        3.649                  2.163                 18.122
 Frequency:       136.06                 151.43                 195.29
 Force Cnst:      0.0829                 0.0816                 0.1276
 Red. Mass:       7.6054                 6.0396                 5.6791
 IR Intens:       34.453                  8.241                147.434
 Frequency:       227.46                 395.03                 444.34
 Force Cnst:      0.1727                 0.7323                 0.3327
 Red. Mass:       5.6652                 7.9651                 2.8603
 IR Intens:      343.492                 31.213                187.041
 Frequency:       476.73                 615.30                 636.89
 Force Cnst:      0.4004                 0.5463                 1.2263
 Red. Mass:       2.9903                 2.4490                 5.1313
 IR Intens:        7.293                  9.737                  4.293
 Frequency:       688.62                 774.74                 795.42
 Force Cnst:      1.3681                 2.5800                 0.4466
 Red. Mass:       4.8968                 7.2956                 1.1980
 IR Intens:       99.873                 57.679                  6.617
 Frequency:       914.89                 960.45                1020.58
 Force Cnst:      2.1894                 2.5436                 3.0335
 Red. Mass:       4.4395                 4.6801                 4.9431
 IR Intens:      117.846                 97.041                113.691
 Frequency:      1030.98                1068.22                1078.74
 Force Cnst:      0.9259                 1.2807                 1.0751
 Red. Mass:       1.4785                 1.9050                 1.5681
 IR Intens:       16.748                 16.469                115.074
 Frequency:      1125.78                1200.40                1256.16
 Force Cnst:      6.2923                 1.1655                 1.4247
 Red. Mass:       8.4267                 1.3728                 1.5324
 IR Intens:      387.811                235.908                593.769
 Frequency:      1276.65                1302.71                1312.89
 Force Cnst:      1.6661                 1.0831                 1.3139
 Red. Mass:       1.7351                 1.0833                 1.2937
 IR Intens:     1247.265                 31.663               1267.383
 Frequency:      1366.72                1388.21                1413.38
 Force Cnst:      1.8315                 1.3893                 2.5699
 Red. Mass:       1.6642                 1.2236                 2.1835
 IR Intens:      410.890                239.189                160.128
 Frequency:      1451.77                1463.71                1475.68
 Force Cnst:      1.3359                 1.3256                 1.6882
 Red. Mass:       1.0758                 1.0501                 1.3158
 IR Intens:       51.242                 30.019                106.710
 Frequency:      1496.28                1503.83                1576.75
 Force Cnst:      1.8355                 1.4999                 5.4233
 Red. Mass:       1.3915                 1.1257                 3.7024
 IR Intens:      118.423                 10.802               1262.460
 Frequency:      1677.77                1902.99                2806.36
 Force Cnst:     10.4497                 3.3367                 5.0066
 Red. Mass:       6.3007                 1.5638                 1.0790
 IR Intens:      479.361               2378.994                343.900
 Frequency:      2840.08                3060.30                3073.15
 Force Cnst:      5.0832                 5.8388                 5.7700
 Red. Mass:       1.0696                 1.0581                 1.0369
 IR Intens:      296.817                 50.911                  2.567
 Frequency:      3113.36                3145.30                3179.43
 Force Cnst:      6.3203                 6.4153                 6.5808
 Red. Mass:       1.1067                 1.1006                 1.1049
 IR Intens:       68.745                  7.221                 14.842

 STANDARD THERMODYNAMIC QUANTITIES AT   298.15 K  AND     1.00 ATM

   This Molecule has  0 Imaginary Frequencies
   Zero point vibrational energy:       82.109 kcal/mol

   Atom    1 Element O  Has Mass   15.99491
   Atom    2 Element C  Has Mass   12.00000
   Atom    3 Element H  Has Mass    1.00783
   Atom    4 Element H  Has Mass    1.00783
   Atom    5 Element H  Has Mass    1.00783
   Atom    6 Element C  Has Mass   12.00000
   Atom    7 Element O  Has Mass   15.99491
   Atom    8 Element O  Has Mass   15.99491
   Atom    9 Element O  Has Mass   15.99491
   Atom   10 Element H  Has Mass    1.00783
   Atom   11 Element C  Has Mass   12.00000
   Atom   12 Element H  Has Mass    1.00783
   Atom   13 Element H  Has Mass    1.00783
   Atom   14 Element C  Has Mass   12.00000
   Atom   15 Element H  Has Mass    1.00783
   Atom   16 Element O  Has Mass   15.99491
   Atom   17 Element H  Has Mass    1.00783
   Atom   18 Element C  Has Mass   12.00000
   Molecular Mass:   148.037190 amu
   Principal axes and moments of inertia in amu*Bohr^2:
                             1           2           3
    Eigenvalues --     1114.40134  2496.57337  3203.03095
          X               0.84209    -0.49285    -0.21906
          Y               0.11542    -0.23207     0.96583
          Z               0.52685     0.83860     0.13854
   Rotational Symmetry Number is   1
   The Molecule is an Asymmetric Top
   Translational Enthalpy:        0.889 kcal/mol
   Rotational Enthalpy:           0.889 kcal/mol
   Vibrational Enthalpy:         87.716 kcal/mol
   gas constant (RT):             0.592 kcal/mol
   Translational Entropy:        40.887  cal/mol.K
   Rotational Entropy:           30.567  cal/mol.K
   Vibrational Entropy:          40.506  cal/mol.K

   Total Enthalpy:               90.086 kcal/mol
   Total Entropy:               111.960  cal/mol.K

 Total job time:  34945.48s(wall), 485424.41s(cpu)
        *  Thank you very much for using Q-Chem.  Have a nice day.  *
