 Q-Chem 5.0, Q-Chem, Inc., Pleasanton, CA (2017)
 Q-Chem 5.0.2 for Intel X86 EM64T Linux

User input:
--------------------------------------------------------------
$molecule
-2 1
C       -1.9184795806   -0.0468847562   -1.0057660185
C       -0.9473415160    1.0211630889   -0.4883860692
H       -1.8189836252   -0.9442044694   -0.3930781492
H       -2.9498702270    0.3172261984   -0.9575925233
H       -1.6710053756   -0.2878792059   -2.0428213631
C        0.5810088305    0.3719256103   -0.5636990657
C        0.8940676310   -0.6884984188    0.3549054581
H        0.6489185973    0.0616764388   -1.6106055685
H        1.1523825288    1.2864865970   -0.3905173703
H        1.2229980474   -0.4564635167    1.3648092446
H        0.3279918205    1.0047767760    2.0352132715
O       -0.8702647141    2.1253290129   -1.4107473678
O       -1.3063096785    1.4001330959    0.7169650186
O        0.1324282741    1.9091517413    1.7612181498
H       -1.6852541268    2.6325105711   -1.3064064810
C        0.8649734907   -2.1103540959    0.0217223555
O        1.1929060794   -2.9455306353    0.9412188270
O        0.5364825440   -2.4870190325   -1.1544543484
$end

$rem
jobtype               freq
method                wb97x-v
basis                 def2-tzvpd
symmetry              off
sym_ignore            true
incdft                false
incfock               0
!scf_algorithm        diis_gdm
scf_convergence       8
thresh                14
!purecart             112
max_scf_cycles        1000
geom_opt_max_cycles   500
geom_opt_dmax         100
geom_opt_tol_gradient 10
solvent_method        pcm
ideriv                1
rpath_tol_displacement 1000
rpath_max_cycles      100
rpath_direction       1
!scf_guess            read
scf_guess             read
$end

$pcm
theory              cosmo
method              iswig
Radii               bondi
vdwScale            1.20
hpoints             110
heavypoints         110
$end

$solvent
dielectric 78.400000
$end

--------------------------------------------------------------

   20    -571.6226075435      3.41E-09 Convergence criterion met
 Total energy in the final basis set = -571.62260754
   18    -571.6226066006      5.93E-09 Convergence criterion met
 Total energy in the final basis set = -571.62260660
   18    -571.6226066044      5.41E-09 Convergence criterion met
 Total energy in the final basis set = -571.62260660
   18    -571.6226066194      5.64E-09 Convergence criterion met
 Total energy in the final basis set = -571.62260662
   18    -571.6226065913      5.46E-09 Convergence criterion met
 Total energy in the final basis set = -571.62260659
   18    -571.6226065208      5.62E-09 Convergence criterion met
 Total energy in the final basis set = -571.62260652
   18    -571.6226065065      5.40E-09 Convergence criterion met
 Total energy in the final basis set = -571.62260651
   18    -571.6226070515      5.69E-09 Convergence criterion met
 Total energy in the final basis set = -571.62260696
   18    -571.6226070016      5.49E-09 Convergence criterion met
 Total energy in the final basis set = -571.62260700
   18    -571.6226074035      5.79E-09 Convergence criterion met
 Total energy in the final basis set = -571.62260740
   18    -571.6226074467      5.77E-09 Convergence criterion met
 Total energy in the final basis set = -571.62260745
   18    -571.6226073065      5.85E-09 Convergence criterion met
 Total energy in the final basis set = -571.62260731
   18    -571.6226073054      5.77E-09 Convergence criterion met
 Total energy in the final basis set = -571.62260731
   18    -571.6226066891      5.55E-09 Convergence criterion met
 Total energy in the final basis set = -571.62260669
   18    -571.6226067224      5.54E-09 Convergence criterion met
 Total energy in the final basis set = -571.62260672

                    Orbital Energies (a.u.)
 --------------------------------------------------------------

 Alpha MOs
 -- Occupied --
-19.221 -19.199 -19.183 -19.117 -19.117 -10.349 -10.318 -10.250
-10.249 -10.209  -1.178  -1.112  -1.102  -1.031  -1.016  -0.880
 -0.832  -0.744  -0.666  -0.608  -0.580  -0.561  -0.555  -0.531
 -0.514  -0.503  -0.501  -0.482  -0.473  -0.464  -0.459  -0.429
 -0.404  -0.377  -0.366  -0.364  -0.327  -0.326  -0.307  -0.223

          Ground-State Mulliken Net Atomic Charges

     Atom                 Charge (a.u.)
  ----------------------------------------
      1 C                    -1.134530
      2 C                     0.744221
      3 H                     0.238585
      4 H                     0.274669
      5 H                     0.222463
      6 C                    -0.011726
      7 C                    -0.627821
      8 H                     0.263749
      9 H                     0.137518
     10 H                     0.371220
     11 H                     0.296035
     12 O                    -0.518956
     13 O                    -0.435597
     14 O                    -0.639771
     15 H                     0.373324
     16 C                    -0.019023
     17 O                    -0.782259
     18 O                    -0.752101
  ----------------------------------------
  Sum of atomic charges =    -2.000000

                    Cartesian Multipole Moments
 -----------------------------------------------------------------
    Charge (ESU x 10^10)
                -9.6064
    Dipole Moment (Debye)
         X      -6.1200      Y      10.6879      Z      -2.9841
       Tot      12.6724
    Quadrupole Moments (Debye-Ang)
        XX     -71.5517     XY      15.1333     YY    -131.3674
        XZ       1.1825     YZ      -7.7752     ZZ     -84.1933

             Standard Nuclear Orientation (Angstroms)
    I     Atom           X                Y                Z
 ----------------------------------------------------------------
    1      C      -1.9184795806    -0.0468847562    -1.0057660185
    2      C      -0.9473415160     1.0211630889    -0.4883860692
    3      H      -1.8189836252    -0.9442044694    -0.3930781492
    4      H      -2.9498702270     0.3172261984    -0.9575925233
    5      H      -1.6710053756    -0.2878792059    -2.0428213631
    6      C       0.5810088305     0.3719256103    -0.5636990657
    7      C       0.8940676310    -0.6884984188     0.3549054581
    8      H       0.6489185973     0.0616764388    -1.6106055685
    9      H       1.1523825288     1.2864865970    -0.3905173703
   10      H       1.2229980474    -0.4564635167     1.3648092446
   11      H       0.3279918205     1.0047767760     2.0352132715
   12      O      -0.8702647141     2.1253290129    -1.4107473678
   13      O      -1.3063096785     1.4001330959     0.7169650186
   14      O       0.1324282741     1.9091517413     1.7612181498
   15      H      -1.6852541268     2.6325105711    -1.3064064810
   16      C       0.8649734907    -2.1103540959     0.0217223555
   17      O       1.1929060794    -2.9455306353     0.9412188270
   18      O       0.5364825440    -2.4870190325    -1.1544543484
 ----------------------------------------------------------------

 Frequency:      -859.24                  45.53                  79.25
 Force Cnst:      3.8475                 0.0092                 0.0241
 Red. Mass:       8.8449                 7.5210                 6.5008
 IR Intens:    10911.550                 19.983                  5.107
 Frequency:        99.38                 118.58                 160.52
 Force Cnst:      0.0254                 0.0418                 0.0193
 Red. Mass:       4.3708                 5.0422                 1.2703
 IR Intens:       19.798                 19.293                156.669
 Frequency:       202.98                 219.50                 236.03
 Force Cnst:      0.0850                 0.0363                 0.0374
 Red. Mass:       3.5027                 1.2790                 1.1382
 IR Intens:       90.998                 61.152                152.371
 Frequency:       258.17                 314.65                 334.41
 Force Cnst:      0.1083                 0.3991                 0.3264
 Red. Mass:       2.7571                 6.8417                 4.9538
 IR Intens:        6.276                 15.806                 14.494
 Frequency:       360.32                 417.32                 535.66
 Force Cnst:      0.1822                 0.3131                 0.5734
 Red. Mass:       2.3818                 3.0509                 3.3919
 IR Intens:       16.878                 58.557                 92.201
 Frequency:       562.22                 585.73                 613.86
 Force Cnst:      0.5984                 0.3342                 0.8671
 Red. Mass:       3.2133                 1.6533                 3.9054
 IR Intens:       57.114                 50.220                 71.144
 Frequency:       656.62                 664.14                 770.93
 Force Cnst:      0.8840                 1.3399                 0.4375
 Red. Mass:       3.4798                 5.1557                 1.2495
 IR Intens:        5.914                 54.634                 94.669
 Frequency:       805.94                 826.50                 888.40
 Force Cnst:      3.4772                 1.2466                 1.6130
 Red. Mass:       9.0860                 3.0974                 3.4687
 IR Intens:       87.237                 68.949                 98.214
 Frequency:       950.95                1009.63                1043.74
 Force Cnst:      1.3317                 1.5249                 0.9096
 Red. Mass:       2.4993                 2.5390                 1.4171
 IR Intens:      779.529                 44.087                 64.392
 Frequency:      1082.80                1138.89                1210.21
 Force Cnst:      1.2964                 1.5165                 1.2777
 Red. Mass:       1.8767                 1.9844                 1.4807
 IR Intens:      722.108                157.079                 31.773
 Frequency:      1227.85                1264.55                1300.61
 Force Cnst:      1.2178                 1.6857                 3.7591
 Red. Mass:       1.3710                 1.7892                 3.7717
 IR Intens:      126.881                128.115               1065.430
 Frequency:      1310.84                1376.62                1416.82
 Force Cnst:      1.7087                 1.4110                 1.6988
 Red. Mass:       1.6877                 1.2637                 1.4364
 IR Intens:      829.520                104.583                359.754
 Frequency:      1450.86                1460.72                1471.66
 Force Cnst:      4.5115                 1.3433                 1.3674
 Red. Mass:       3.6376                 1.0686                 1.0716
 IR Intens:      878.793                 43.239                 12.173
 Frequency:      1498.55                3051.64                3067.36
 Force Cnst:      4.0383                 5.6781                 5.8562
 Red. Mass:       3.0522                 1.0349                 1.0564
 IR Intens:      553.926                 74.061                 78.006
 Frequency:      3128.46                3137.53                3160.63
 Force Cnst:      6.3628                 6.4121                 6.4927
 Red. Mass:       1.1034                 1.1055                 1.1031
 IR Intens:       18.107                  5.050                 35.114
 Frequency:      3165.70                3821.52                3840.04
 Force Cnst:      6.4266                 9.1718                 9.2643
 Red. Mass:       1.0884                 1.0659                 1.0663
 IR Intens:       59.409                116.943                213.764

 STANDARD THERMODYNAMIC QUANTITIES AT   298.15 K  AND     1.00 ATM

   This Molecule has  1 Imaginary Frequencies
   Zero point vibrational energy:       80.549 kcal/mol

   Atom    1 Element C  Has Mass   12.00000
   Atom    2 Element C  Has Mass   12.00000
   Atom    3 Element H  Has Mass    1.00783
   Atom    4 Element H  Has Mass    1.00783
   Atom    5 Element H  Has Mass    1.00783
   Atom    6 Element C  Has Mass   12.00000
   Atom    7 Element C  Has Mass   12.00000
   Atom    8 Element H  Has Mass    1.00783
   Atom    9 Element H  Has Mass    1.00783
   Atom   10 Element H  Has Mass    1.00783
   Atom   11 Element H  Has Mass    1.00783
   Atom   12 Element O  Has Mass   15.99491
   Atom   13 Element O  Has Mass   15.99491
   Atom   14 Element O  Has Mass   15.99491
   Atom   15 Element H  Has Mass    1.00783
   Atom   16 Element C  Has Mass   12.00000
   Atom   17 Element O  Has Mass   15.99491
   Atom   18 Element O  Has Mass   15.99491
   Molecular Mass:   148.037190 amu
   Principal axes and moments of inertia in amu*Bohr^2:
                             1           2           3
    Eigenvalues --      886.94722  2209.62844  2669.26047
          X              -0.40488     0.41683     0.81383
          Y               0.91373     0.21769     0.34308
          Z              -0.03416     0.88253    -0.46901
   Rotational Symmetry Number is   1
   The Molecule is an Asymmetric Top
   Translational Enthalpy:        0.889 kcal/mol
   Rotational Enthalpy:           0.889 kcal/mol
   Vibrational Enthalpy:         86.000 kcal/mol
   gas constant (RT):             0.592 kcal/mol
   Translational Entropy:        40.887  cal/mol.K
   Rotational Entropy:           30.037  cal/mol.K
   Vibrational Entropy:          34.350  cal/mol.K

   Total Enthalpy:               88.370 kcal/mol
   Total Entropy:               105.274  cal/mol.K

 Total job time:  45382.79s(wall), 620066.08s(cpu)
        *  Thank you very much for using Q-Chem.  Have a nice day.  *
