 Q-Chem 5.0, Q-Chem, Inc., Pleasanton, CA (2017)
 Q-Chem 5.0.2 for Intel X86 EM64T Linux

User input:
--------------------------------------------------------------
$molecule
-2 1
C        0.3906255835    0.9899200552   -0.5443045241
C        0.5482869731    1.9945538748    0.6128953714
O        1.1770742293    1.6134612009    1.6315159542
O        0.0606109745    3.1393518659    0.4288743086
C        0.2889589337   -0.4548331092   -0.1061370787
H        1.2835480747    1.0842042424   -1.1754301829
H       -0.4674836287    1.2770045858   -1.1584636313
O       -0.9074627413   -0.6733111398    0.6830894429
H        1.1082229493   -0.7061168600    0.5667975634
H        0.3067409761   -1.1411429284   -0.9543117297
C       -2.0713215897   -1.0244572264    0.1267031254
C       -2.1266105828   -1.3149626216   -1.3496636834
H       -3.1635232265   -1.5009388263   -1.6231906445
H       -1.5270741573   -2.2013719737   -1.5764388077
H       -1.7323359881   -0.4827666409   -1.9363153717
O       -3.0406541591   -1.1175014471    0.8522766768
O        4.0345873556    0.2624024195    0.3889222797
H        3.1889286513    0.5927324955    0.7138024313
$end

$rem
jobtype               freq
method                wb97x-v
basis                 def2-tzvpd
symmetry              off
sym_ignore            true
incdft                false
incfock               0
!scf_algorithm        diis_gdm
scf_convergence       8
thresh                14
!purecart             112
max_scf_cycles        1000
geom_opt_max_cycles   500
geom_opt_dmax         100
geom_opt_tol_gradient 10
solvent_method        pcm
ideriv                1
rpath_tol_displacement 1000
rpath_max_cycles      100
rpath_direction       1
!scf_guess            read
scf_guess             read
$end

$pcm
theory              cosmo
method              iswig
Radii               bondi
vdwScale            1.20
hpoints             110
heavypoints         110
$end

$solvent
dielectric 78.400000
$end

--------------------------------------------------------------

   17    -571.8080464782      6.57E-09 Convergence criterion met
 Total energy in the final basis set = -571.80804648
   16    -571.8080454932      8.85E-09 Convergence criterion met
 Total energy in the final basis set = -571.80804549
   14    -571.8080453784      8.71E-09 Convergence criterion met
 Total energy in the final basis set = -571.80804538
   16    -571.8080456357      4.01E-09 Convergence criterion met
 Total energy in the final basis set = -571.80804564
   14    -571.8080455462      8.92E-09 Convergence criterion met
 Total energy in the final basis set = -571.80804555
   16    -571.8080456254      3.83E-09 Convergence criterion met
 Total energy in the final basis set = -571.80804563
   15    -571.8080454881      3.23E-09 Convergence criterion met
 Total energy in the final basis set = -571.80804549
   16    -571.8080456844      4.71E-09 Convergence criterion met
 Total energy in the final basis set = -571.80804637
   17    -571.8080463679      1.34E-09 Convergence criterion met
 Total energy in the final basis set = -571.80804637
   17    -571.8080457696      1.10E-09 Convergence criterion met
 Total energy in the final basis set = -571.80804577
   16    -571.8080457420      4.75E-09 Convergence criterion met
 Total energy in the final basis set = -571.80804574
   17    -571.8080463832      1.39E-09 Convergence criterion met
 Total energy in the final basis set = -571.80804638
   17    -571.8080463424      1.23E-09 Convergence criterion met
 Total energy in the final basis set = -571.80804634
   17    -571.8080463344      1.41E-09 Convergence criterion met
 Total energy in the final basis set = -571.80804633
   17    -571.8080463979      1.25E-09 Convergence criterion met
 Total energy in the final basis set = -571.80804640

                    Orbital Energies (a.u.)
 --------------------------------------------------------------

 Alpha MOs
 -- Occupied --
-19.255 -19.197 -19.143 -19.142 -19.088 -10.406 -10.345 -10.319
-10.272 -10.257  -1.236  -1.150  -1.145  -1.054  -0.961  -0.901
 -0.878  -0.786  -0.682  -0.623  -0.617  -0.598  -0.586  -0.551
 -0.543  -0.532  -0.514  -0.501  -0.499  -0.476  -0.453  -0.445
 -0.442  -0.403  -0.387  -0.350  -0.339  -0.334  -0.309  -0.309

          Ground-State Mulliken Net Atomic Charges

     Atom                 Charge (a.u.)
  ----------------------------------------
      1 C                     0.089427
      2 C                     0.154489
      3 O                    -0.690150
      4 O                    -0.721667
      5 C                    -0.331417
      6 H                     0.275152
      7 H                     0.072445
      8 O                    -0.332349
      9 H                     0.175027
     10 H                     0.247328
     11 C                     0.561436
     12 C                    -0.687308
     13 H                     0.209067
     14 H                     0.297535
     15 H                     0.258054
     16 O                    -0.543280
     17 O                    -1.121523
     18 H                     0.087735
  ----------------------------------------
  Sum of atomic charges =    -2.000000

                    Cartesian Multipole Moments
 -----------------------------------------------------------------
    Charge (ESU x 10^10)
                -9.6064
    Dipole Moment (Debye)
         X     -19.2750      Y     -12.7539      Z     -12.2830
       Tot      26.1736
    Quadrupole Moments (Debye-Ang)
        XX    -169.9898     XY     -12.8448     YY    -100.7164
        XZ      -3.4871     YZ      -7.2537     ZZ     -76.2393

             Standard Nuclear Orientation (Angstroms)
    I     Atom           X                Y                Z
 ----------------------------------------------------------------
    1      C       0.3906255835     0.9899200552    -0.5443045241
    2      C       0.5482869731     1.9945538748     0.6128953714
    3      O       1.1770742293     1.6134612009     1.6315159542
    4      O       0.0606109745     3.1393518659     0.4288743086
    5      C       0.2889589337    -0.4548331092    -0.1061370787
    6      H       1.2835480747     1.0842042424    -1.1754301829
    7      H      -0.4674836287     1.2770045858    -1.1584636313
    8      O      -0.9074627413    -0.6733111398     0.6830894429
    9      H       1.1082229493    -0.7061168600     0.5667975634
   10      H       0.3067409761    -1.1411429284    -0.9543117297
   11      C      -2.0713215897    -1.0244572264     0.1267031254
   12      C      -2.1266105828    -1.3149626216    -1.3496636834
   13      H      -3.1635232265    -1.5009388263    -1.6231906445
   14      H      -1.5270741573    -2.2013719737    -1.5764388077
   15      H      -1.7323359881    -0.4827666409    -1.9363153717
   16      O      -3.0406541591    -1.1175014471     0.8522766768
   17      O       4.0345873556     0.2624024195     0.3889222797
   18      H       3.1889286513     0.5927324955     0.7138024313
 ----------------------------------------------------------------

 Frequency:        29.06                  39.52                  42.77
 Force Cnst:      0.0045                 0.0083                 0.0074
 Red. Mass:       9.0579                 9.0449                 6.8892
 IR Intens:       47.951                 11.077                 30.900
 Frequency:        65.65                  81.50                  90.02
 Force Cnst:      0.0228                 0.0171                 0.0422
 Red. Mass:       8.9849                 4.3605                 8.8421
 IR Intens:       37.423                 10.747                  3.264
 Frequency:       120.00                 187.75                 210.40
 Force Cnst:      0.0376                 0.0240                 0.0874
 Red. Mass:       4.4293                 1.1557                 3.3512
 IR Intens:        6.307                  0.537                  6.967
 Frequency:       299.61                 360.22                 376.25
 Force Cnst:      0.0549                 0.0870                 0.2170
 Red. Mass:       1.0380                 1.1380                 2.6014
 IR Intens:      108.990                 93.733                 29.327
 Frequency:       381.28                 488.69                 526.06
 Force Cnst:      0.1961                 0.4078                 0.7283
 Red. Mass:       2.2893                 2.8984                 4.4665
 IR Intens:        2.971                  4.869                 37.199
 Frequency:       575.16                 588.20                 615.78
 Force Cnst:      0.7450                 0.5036                 1.0074
 Red. Mass:       3.8223                 2.4703                 4.5093
 IR Intens:       17.446                 13.546                 34.073
 Frequency:       669.86                 800.81                 869.31
 Force Cnst:      0.7351                 1.6062                 2.0324
 Red. Mass:       2.7805                 4.2511                 4.5646
 IR Intens:        5.717                 22.542                 42.677
 Frequency:       952.33                1009.98                1027.46
 Force Cnst:      1.4779                 1.1000                 1.0672
 Red. Mass:       2.7658                 1.8303                 1.7158
 IR Intens:        3.410                 30.734                 27.804
 Frequency:      1062.61                1074.22                1119.68
 Force Cnst:      1.3489                 1.6538                 2.7760
 Red. Mass:       2.0276                 2.4324                 3.7582
 IR Intens:       39.426                 85.078                106.769
 Frequency:      1226.90                1258.06                1323.80
 Force Cnst:      1.1561                 1.6172                 1.7099
 Red. Mass:       1.3035                 1.7343                 1.6560
 IR Intens:       44.053                217.582                416.594
 Frequency:      1346.79                1398.89                1420.68
 Force Cnst:      1.7948                 1.5402                 1.8209
 Red. Mass:       1.6794                 1.3358                 1.5313
 IR Intens:       43.981                111.431                 75.982
 Frequency:      1441.46                1447.05                1455.34
 Force Cnst:      2.3184                 2.0135                 1.3687
 Red. Mass:       1.8938                 1.6320                 1.0968
 IR Intens:      199.568                 88.216                 50.816
 Frequency:      1474.05                1508.45                1604.67
 Force Cnst:      1.3430                 1.5034                15.4211
 Red. Mass:       1.0491                 1.1214                10.1648
 IR Intens:       11.119                 29.527               1275.917
 Frequency:      1760.94                3063.63                3079.48
 Force Cnst:     20.1034                 5.8826                 5.8033
 Red. Mass:      11.0034                 1.0638                 1.0387
 IR Intens:      734.739                 12.951                  0.210
 Frequency:      3114.71                3121.12                3154.09
 Force Cnst:      6.1639                 6.2031                 6.4442
 Red. Mass:       1.0784                 1.0808                 1.0994
 IR Intens:       18.062                 43.703                  2.547
 Frequency:      3174.33                3191.82                3820.75
 Force Cnst:      6.5751                 6.6291                 9.1775
 Red. Mass:       1.1075                 1.1044                 1.0670
 IR Intens:       16.168                  6.034                 18.096

 STANDARD THERMODYNAMIC QUANTITIES AT   298.15 K  AND     1.00 ATM

   This Molecule has  0 Imaginary Frequencies
   Zero point vibrational energy:       82.988 kcal/mol

   Atom    1 Element C  Has Mass   12.00000
   Atom    2 Element C  Has Mass   12.00000
   Atom    3 Element O  Has Mass   15.99491
   Atom    4 Element O  Has Mass   15.99491
   Atom    5 Element C  Has Mass   12.00000
   Atom    6 Element H  Has Mass    1.00783
   Atom    7 Element H  Has Mass    1.00783
   Atom    8 Element O  Has Mass   15.99491
   Atom    9 Element H  Has Mass    1.00783
   Atom   10 Element H  Has Mass    1.00783
   Atom   11 Element C  Has Mass   12.00000
   Atom   12 Element C  Has Mass   12.00000
   Atom   13 Element H  Has Mass    1.00783
   Atom   14 Element H  Has Mass    1.00783
   Atom   15 Element H  Has Mass    1.00783
   Atom   16 Element O  Has Mass   15.99491
   Atom   17 Element O  Has Mass   15.99491
   Atom   18 Element H  Has Mass    1.00783
   Molecular Mass:   148.037190 amu
   Principal axes and moments of inertia in amu*Bohr^2:
                             1           2           3
    Eigenvalues --     1053.83222  2813.02850  3276.53172
          X               0.86745    -0.49752     0.00046
          Y               0.48102     0.83845    -0.25616
          Z               0.12706     0.22243     0.96663
   Rotational Symmetry Number is   1
   The Molecule is an Asymmetric Top
   Translational Enthalpy:        0.889 kcal/mol
   Rotational Enthalpy:           0.889 kcal/mol
   Vibrational Enthalpy:         89.044 kcal/mol
   gas constant (RT):             0.592 kcal/mol
   Translational Entropy:        40.887  cal/mol.K
   Rotational Entropy:           30.652  cal/mol.K
   Vibrational Entropy:          44.211  cal/mol.K

   Total Enthalpy:               91.413 kcal/mol
   Total Entropy:               115.750  cal/mol.K

 Total job time:  50245.38s(wall), 518398.16s(cpu)
        *  Thank you very much for using Q-Chem.  Have a nice day.  *
