 Q-Chem 5.0, Q-Chem, Inc., Pleasanton, CA (2017)
 Q-Chem 5.0.2 for Intel X86 EM64T Linux

User input:
--------------------------------------------------------------
$molecule
-2 1
C        0.3664798086    1.1551214269    0.0576796022
C        0.6103403639    2.1821852350    1.1785385633
O        0.8536359525    1.7702106422    2.3390190511
O        0.5158348236    3.3895186453    0.8302451536
C        0.7381808247   -0.2624169251    0.3842074386
H        0.9123317701    1.4772212765   -0.8303019788
H       -0.6983935773    1.2147433095   -0.1887039180
O       -0.9401830427   -0.9219601564    0.8863847027
H        1.0760411798   -0.5082898414    1.3727615738
H        0.8723760000   -0.9834364555   -0.4028092221
C       -1.7905787909   -1.4318303269    0.0668228704
C       -1.4291315815   -1.4934214626   -1.4080526205
H       -2.2937753840   -1.8166168073   -1.9869695112
H       -0.6142611693   -2.2087824430   -1.5569018239
H       -1.0859977279   -0.5210599520   -1.7699473274
O       -2.8842624046   -1.8808842616    0.4440941846
O        2.7892126674    0.0279660175    0.0325006075
H        3.0021502878    0.8117320784    0.5514326541
$end

$rem
jobtype               freq
method                wb97x-v
basis                 def2-tzvpd
symmetry              off
sym_ignore            true
incdft                false
incfock               0
!scf_algorithm        diis_gdm
scf_convergence       8
thresh                14
!purecart             112
max_scf_cycles        1000
geom_opt_max_cycles   500
geom_opt_dmax         100
geom_opt_tol_gradient 10
solvent_method        pcm
ideriv                1
rpath_tol_displacement 1000
rpath_max_cycles      100
rpath_direction       1
!scf_guess            read
scf_guess             read
$end

$pcm
theory              cosmo
method              iswig
Radii               bondi
vdwScale            1.20
hpoints             110
heavypoints         110
$end

$solvent
dielectric 78.400000
$end

--------------------------------------------------------------

   17    -571.7674079192      6.68E-09 Convergence criterion met
 Total energy in the final basis set = -571.76740792
   16    -571.7674069443      2.92E-09 Convergence criterion met
 Total energy in the final basis set = -571.76740694
   15    -571.7674069394      4.44E-09 Convergence criterion met
 Total energy in the final basis set = -571.76740694
   15    -571.7674069964      7.27E-09 Convergence criterion met
 Total energy in the final basis set = -571.76740700
   15    -571.7674069917      4.01E-09 Convergence criterion met
 Total energy in the final basis set = -571.76740699
   15    -571.7674069739      6.67E-09 Convergence criterion met
 Total energy in the final basis set = -571.76740697
   15    -571.7674069762      4.28E-09 Convergence criterion met
 Total energy in the final basis set = -571.76740698
   15    -571.7674074102      8.52E-09 Convergence criterion met
 Total energy in the final basis set = -571.76740768
   15    -571.7674075480      4.03E-09 Convergence criterion met
 Total energy in the final basis set = -571.76740755
   17    -571.7674078394      1.17E-09 Convergence criterion met
 Total energy in the final basis set = -571.76740784
   17    -571.7674078680      1.02E-09 Convergence criterion met
 Total energy in the final basis set = -571.76740787
   16    -571.7674072660      3.20E-09 Convergence criterion met
 Total energy in the final basis set = -571.76740727
   16    -571.7674073201      3.57E-09 Convergence criterion met
 Total energy in the final basis set = -571.76740732
   15    -571.7674077155      3.90E-09 Convergence criterion met
 Total energy in the final basis set = -571.76740772
   15    -571.7674075726      5.34E-09 Convergence criterion met
 Total energy in the final basis set = -571.76740757

                    Orbital Energies (a.u.)
 --------------------------------------------------------------

 Alpha MOs
 -- Occupied --
-19.183 -19.161 -19.142 -19.139 -19.107 -10.367 -10.343 -10.324
-10.255 -10.252  -1.176  -1.145  -1.082  -1.051  -0.992  -0.885
 -0.851  -0.751  -0.633  -0.612  -0.581  -0.567  -0.555  -0.540
 -0.534  -0.528  -0.498  -0.493  -0.477  -0.464  -0.459  -0.453
 -0.388  -0.372  -0.357  -0.348  -0.338  -0.332  -0.324  -0.312

          Ground-State Mulliken Net Atomic Charges

     Atom                 Charge (a.u.)
  ----------------------------------------
      1 C                     0.009145
      2 C                     0.058857
      3 O                    -0.689887
      4 O                    -0.719220
      5 C                     0.121283
      6 H                     0.184953
      7 H                     0.206323
      8 O                    -0.531978
      9 H                     0.079736
     10 H                     0.180043
     11 C                     0.456556
     12 C                    -0.635858
     13 H                     0.197445
     14 H                     0.255480
     15 H                     0.235989
     16 O                    -0.652968
     17 O                    -0.974039
     18 H                     0.218140
  ----------------------------------------
  Sum of atomic charges =    -2.000000

                    Cartesian Multipole Moments
 -----------------------------------------------------------------
    Charge (ESU x 10^10)
                -9.6064
    Dipole Moment (Debye)
         X      -4.7408      Y      -8.0213      Z     -11.7558
       Tot      15.0005
    Quadrupole Moments (Debye-Ang)
        XX    -117.9269     XY     -19.9600     YY    -114.1072
        XZ       3.2555     YZ     -12.5844     ZZ     -85.9413

             Standard Nuclear Orientation (Angstroms)
    I     Atom           X                Y                Z
 ----------------------------------------------------------------
    1      C       0.3664798086     1.1551214269     0.0576796022
    2      C       0.6103403639     2.1821852350     1.1785385633
    3      O       0.8536359525     1.7702106422     2.3390190511
    4      O       0.5158348236     3.3895186453     0.8302451536
    5      C       0.7381808247    -0.2624169251     0.3842074386
    6      H       0.9123317701     1.4772212765    -0.8303019788
    7      H      -0.6983935773     1.2147433095    -0.1887039180
    8      O      -0.9401830427    -0.9219601564     0.8863847027
    9      H       1.0760411798    -0.5082898414     1.3727615738
   10      H       0.8723760000    -0.9834364555    -0.4028092221
   11      C      -1.7905787909    -1.4318303269     0.0668228704
   12      C      -1.4291315815    -1.4934214626    -1.4080526205
   13      H      -2.2937753840    -1.8166168073    -1.9869695112
   14      H      -0.6142611693    -2.2087824430    -1.5569018239
   15      H      -1.0859977279    -0.5210599520    -1.7699473274
   16      O      -2.8842624046    -1.8808842616     0.4440941846
   17      O       2.7892126674     0.0279660175     0.0325006075
   18      H       3.0021502878     0.8117320784     0.5514326541
 ----------------------------------------------------------------

 Frequency:      -652.37                  27.32                  59.19
 Force Cnst:      2.4223                 0.0036                 0.0143
 Red. Mass:       9.6604                 8.1206                 6.9444
 IR Intens:     2480.039                  8.434                  3.399
 Frequency:        65.91                  71.46                 112.61
 Force Cnst:      0.0138                 0.0132                 0.0177
 Red. Mass:       5.3892                 4.3934                 2.3704
 IR Intens:       38.416                  1.807                 22.824
 Frequency:       138.88                 163.60                 186.08
 Force Cnst:      0.0184                 0.0181                 0.0786
 Red. Mass:       1.6184                 1.1496                 3.8513
 IR Intens:      110.023                  3.342                  3.424
 Frequency:       255.47                 268.01                 362.04
 Force Cnst:      0.3007                 0.3295                 0.2149
 Red. Mass:       7.8212                 7.7855                 2.7830
 IR Intens:       25.681                 28.192                  3.467
 Frequency:       390.01                 475.27                 512.23
 Force Cnst:      0.2165                 0.3830                 0.4389
 Red. Mass:       2.4159                 2.8777                 2.8392
 IR Intens:       27.421                 11.726                 57.555
 Frequency:       582.04                 605.85                 613.88
 Force Cnst:      0.4848                 0.4072                 0.4238
 Red. Mass:       2.4287                 1.8828                 1.9087
 IR Intens:       10.867                 22.281                 72.108
 Frequency:       641.89                 674.89                 862.93
 Force Cnst:      0.7896                 1.3013                 1.6808
 Red. Mass:       3.2527                 4.8490                 3.8310
 IR Intens:       16.392                 78.430                 35.223
 Frequency:       929.87                 949.81                1007.15
 Force Cnst:      2.9541                 1.4482                 1.0327
 Red. Mass:       5.7986                 2.7245                 1.7279
 IR Intens:       66.330                106.434                 14.147
 Frequency:      1024.72                1063.08                1096.62
 Force Cnst:      0.9069                 1.2753                 1.6949
 Red. Mass:       1.4660                 1.9153                 2.3922
 IR Intens:       46.963                 14.411                  6.006
 Frequency:      1131.34                1194.29                1226.63
 Force Cnst:      0.7889                 0.9547                 1.0128
 Red. Mass:       1.0462                 1.1360                 1.1424
 IR Intens:        1.840                 83.185                130.113
 Frequency:      1333.38                1368.11                1413.53
 Force Cnst:      1.7659                 1.5529                 1.4526
 Red. Mass:       1.6859                 1.4082                 1.2339
 IR Intens:       45.202                 66.324                 99.491
 Frequency:      1429.05                1432.88                1441.65
 Force Cnst:      1.7087                 3.7906                 4.2642
 Red. Mass:       1.4201                 3.1335                 3.4823
 IR Intens:      139.451                677.668                 82.783
 Frequency:      1459.53                1477.68                1596.67
 Force Cnst:      1.3830                 1.3889                15.2864
 Red. Mass:       1.1019                 1.0796                10.1772
 IR Intens:       49.844                 21.966               1234.901
 Frequency:      1627.97                3070.13                3086.51
 Force Cnst:     13.2894                 5.7638                 5.9813
 Red. Mass:       8.5106                 1.0379                 1.0656
 IR Intens:     1162.748                  5.549                 24.989
 Frequency:      3140.51                3141.13                3172.37
 Force Cnst:      6.3841                 6.3817                 6.5469
 Red. Mass:       1.0986                 1.0978                 1.1041
 IR Intens:       14.993                 12.274                 26.012
 Frequency:      3258.29                3381.82                3839.11
 Force Cnst:      6.5956                 7.5835                 9.2653
 Red. Mass:       1.0544                 1.1254                 1.0670
 IR Intens:       13.861                  0.570                  0.220

 STANDARD THERMODYNAMIC QUANTITIES AT   298.15 K  AND     1.00 ATM

   This Molecule has  1 Imaginary Frequencies
   Zero point vibrational energy:       82.005 kcal/mol

   Atom    1 Element C  Has Mass   12.00000
   Atom    2 Element C  Has Mass   12.00000
   Atom    3 Element O  Has Mass   15.99491
   Atom    4 Element O  Has Mass   15.99491
   Atom    5 Element C  Has Mass   12.00000
   Atom    6 Element H  Has Mass    1.00783
   Atom    7 Element H  Has Mass    1.00783
   Atom    8 Element O  Has Mass   15.99491
   Atom    9 Element H  Has Mass    1.00783
   Atom   10 Element H  Has Mass    1.00783
   Atom   11 Element C  Has Mass   12.00000
   Atom   12 Element C  Has Mass   12.00000
   Atom   13 Element H  Has Mass    1.00783
   Atom   14 Element H  Has Mass    1.00783
   Atom   15 Element H  Has Mass    1.00783
   Atom   16 Element O  Has Mass   15.99491
   Atom   17 Element O  Has Mass   15.99491
   Atom   18 Element H  Has Mass    1.00783
   Molecular Mass:   148.037190 amu
   Principal axes and moments of inertia in amu*Bohr^2:
                             1           2           3
    Eigenvalues --      961.13455  2726.20460  3103.29734
          X               0.63312     0.74906     0.19513
          Y               0.73646    -0.50530    -0.44978
          Z               0.23831    -0.42847     0.87156
   Rotational Symmetry Number is   1
   The Molecule is an Asymmetric Top
   Translational Enthalpy:        0.889 kcal/mol
   Rotational Enthalpy:           0.889 kcal/mol
   Vibrational Enthalpy:         87.696 kcal/mol
   gas constant (RT):             0.592 kcal/mol
   Translational Entropy:        40.887  cal/mol.K
   Rotational Entropy:           30.476  cal/mol.K
   Vibrational Entropy:          39.529  cal/mol.K

   Total Enthalpy:               90.066 kcal/mol
   Total Entropy:               110.892  cal/mol.K

 Total job time:  110455.99s(wall), 421730.66s(cpu)
        *  Thank you very much for using Q-Chem.  Have a nice day.  *
