 Q-Chem 5.0, Q-Chem, Inc., Pleasanton, CA (2017)
 Q-Chem 5.0.2 for Intel X86 EM64T Linux

User input:
--------------------------------------------------------------
$molecule
-2 1
C       -0.4350709012   -0.0419873244   -1.7678488720
C       -1.4791253161    0.3376385993   -2.8266134729
O       -2.1181591909   -0.6032154502   -3.3688119869
O       -1.6508406212    1.5649942768   -3.0528833528
C       -1.1054672309   -0.1329567606   -0.3951085884
H        0.3563497815    0.7107848510   -1.7357845681
H        0.0023254825   -1.0147784406   -2.0170776304
O       -0.2259819677   -0.5893008152    0.6240019180
H       -1.9257496639   -0.8583283083   -0.4394685029
H       -1.5163550344    0.8395487810   -0.1073337790
C        0.4733360558    0.4479514030    1.3982011497
C        0.9487305351   -0.2822927871    2.6551244956
H        1.6054412618    0.3836308008    3.2208421802
H        1.4865281796   -1.2041298577    2.4227080901
H        0.0764180816   -0.5250926384    3.2677911932
O       -0.1558612775    1.5561248383    1.5666778353
O        1.6789375923    0.7768818717    0.5576660761
O        2.3633210604   -0.4177299567    0.1588671874
H        1.6158126019   -0.9632915330   -0.1473598516
$end

$rem
jobtype               freq
method                wb97x-v
basis                 def2-tzvpd
symmetry              off
sym_ignore            true
incdft                false
incfock               0
!scf_algorithm        diis_gdm
scf_convergence       8
thresh                14
!purecart             112
max_scf_cycles        1000
geom_opt_max_cycles   500
geom_opt_dmax         100
geom_opt_tol_gradient 10
solvent_method        pcm
ideriv                1
rpath_tol_displacement 1000
rpath_max_cycles      100
rpath_direction       1
!scf_guess            read
scf_guess             read
$end

$pcm
theory              cosmo
method              iswig
Radii               bondi
vdwScale            1.20
hpoints             110
heavypoints         110
$end

$solvent
dielectric 78.400000
$end

--------------------------------------------------------------

   17    -646.9622423278      3.82E-09 Convergence criterion met
 Total energy in the final basis set = -646.96224233
   14    -646.9622414287      8.31E-09 Convergence criterion met
 Total energy in the final basis set = -646.96224143
   14    -646.9622413052      7.42E-09 Convergence criterion met
 Total energy in the final basis set = -646.96224131
   14    -646.9622412442      7.91E-09 Convergence criterion met
 Total energy in the final basis set = -646.96224124
   14    -646.9622412022      7.10E-09 Convergence criterion met
 Total energy in the final basis set = -646.96224120
   14    -646.9622415929      8.31E-09 Convergence criterion met
 Total energy in the final basis set = -646.96224159
   14    -646.9622415314      7.29E-09 Convergence criterion met
 Total energy in the final basis set = -646.96224153
   14    -646.9622415350      7.39E-09 Convergence criterion met
 Total energy in the final basis set = -646.96224213
   14    -646.9622421844      7.73E-09 Convergence criterion met
 Total energy in the final basis set = -646.96224218
   15    -646.9622417627      9.98E-09 Convergence criterion met
 Total energy in the final basis set = -646.96224176
   15    -646.9622418288      1.76E-09 Convergence criterion met
 Total energy in the final basis set = -646.96224183
   15    -646.9622419616      2.33E-09 Convergence criterion met
 Total energy in the final basis set = -646.96224196
   15    -646.9622419893      3.33E-09 Convergence criterion met
 Total energy in the final basis set = -646.96224199
   16    -646.9622422223      2.92E-09 Convergence criterion met
 Total energy in the final basis set = -646.96224222
   16    -646.9622422163      4.30E-09 Convergence criterion met
 Total energy in the final basis set = -646.96224222

                    Orbital Energies (a.u.)
 --------------------------------------------------------------

 Alpha MOs
 -- Occupied --
-19.242 -19.234 -19.194 -19.140 -19.140 -19.116 -10.374 -10.341
-10.293 -10.243 -10.235  -1.233  -1.147  -1.143  -1.070  -1.049
 -0.973  -0.879  -0.833  -0.745  -0.669  -0.632  -0.605  -0.585
 -0.560  -0.544  -0.537  -0.525  -0.519  -0.511  -0.492  -0.474
 -0.467  -0.461  -0.449  -0.433  -0.405  -0.367  -0.349  -0.346
 -0.336  -0.331  -0.329  -0.317

          Ground-State Mulliken Net Atomic Charges

     Atom                 Charge (a.u.)
  ----------------------------------------
      1 C                     0.126675
      2 C                    -0.039064
      3 O                    -0.694327
      4 O                    -0.694482
      5 C                    -0.326826
      6 H                     0.139232
      7 H                     0.251712
      8 O                    -0.458457
      9 H                     0.195469
     10 H                     0.223600
     11 C                     0.784997
     12 C                    -1.019238
     13 H                     0.254226
     14 H                     0.188703
     15 H                     0.226936
     16 O                    -0.837449
     17 O                    -0.288031
     18 O                    -0.406849
     19 H                     0.373174
  ----------------------------------------
  Sum of atomic charges =    -2.000000

                    Cartesian Multipole Moments
 -----------------------------------------------------------------
    Charge (ESU x 10^10)
                -9.6064
    Dipole Moment (Debye)
         X       6.6220      Y      -8.8853      Z      10.4612
       Tot      15.2393
    Quadrupole Moments (Debye-Ang)
        XX    -102.7521     XY       2.4123     YY     -92.0191
        XZ     -34.9375     YZ       0.3438     ZZ    -134.6198

             Standard Nuclear Orientation (Angstroms)
    I     Atom           X                Y                Z
 ----------------------------------------------------------------
    1      C      -0.4350709012    -0.0419873244    -1.7678488720
    2      C      -1.4791253161     0.3376385993    -2.8266134729
    3      O      -2.1181591909    -0.6032154502    -3.3688119869
    4      O      -1.6508406212     1.5649942768    -3.0528833528
    5      C      -1.1054672309    -0.1329567606    -0.3951085884
    6      H       0.3563497815     0.7107848510    -1.7357845681
    7      H       0.0023254825    -1.0147784406    -2.0170776304
    8      O      -0.2259819677    -0.5893008152     0.6240019180
    9      H      -1.9257496639    -0.8583283083    -0.4394685029
   10      H      -1.5163550344     0.8395487810    -0.1073337790
   11      C       0.4733360558     0.4479514030     1.3982011497
   12      C       0.9487305351    -0.2822927871     2.6551244956
   13      H       1.6054412618     0.3836308008     3.2208421802
   14      H       1.4865281796    -1.2041298577     2.4227080901
   15      H       0.0764180816    -0.5250926384     3.2677911932
   16      O      -0.1558612775     1.5561248383     1.5666778353
   17      O       1.6789375923     0.7768818717     0.5576660761
   18      O       2.3633210604    -0.4177299567     0.1588671874
   19      H       1.6158126019    -0.9632915330    -0.1473598516
 ----------------------------------------------------------------

 Frequency:        34.54                  49.67                  60.51
 Force Cnst:      0.0089                 0.0056                 0.0127
 Red. Mass:      12.6477                 3.8565                 5.9034
 IR Intens:        1.201                  2.183                  7.982
 Frequency:        79.40                 161.29                 186.13
 Force Cnst:      0.0200                 0.0626                 0.0799
 Red. Mass:       5.3893                 4.0866                 3.9160
 IR Intens:        1.731                  5.173                 43.669
 Frequency:       224.61                 233.92                 297.56
 Force Cnst:      0.0492                 0.0682                 0.1411
 Red. Mass:       1.6546                 2.1155                 2.7049
 IR Intens:        7.158                 13.184                 15.002
 Frequency:       322.34                 366.01                 430.31
 Force Cnst:      0.2567                 0.2134                 0.1855
 Red. Mass:       4.1934                 2.7042                 1.7003
 IR Intens:       30.348                 57.466                126.930
 Frequency:       442.76                 466.34                 488.30
 Force Cnst:      0.4647                 0.4186                 0.7267
 Red. Mass:       4.0234                 3.2666                 5.1727
 IR Intens:       36.026                  6.465                  5.047
 Frequency:       595.51                 620.22                 673.37
 Force Cnst:      1.0596                 0.9413                 1.3787
 Red. Mass:       5.0715                 4.1534                 5.1608
 IR Intens:       39.034                  3.228                 44.454
 Frequency:       688.30                 770.60                 795.89
 Force Cnst:      1.1877                 1.8055                 2.6760
 Red. Mass:       4.2549                 5.1605                 7.1702
 IR Intens:      148.067                249.852                142.454
 Frequency:       805.58                 950.93                 973.40
 Force Cnst:      0.4833                 2.5800                 1.5498
 Red. Mass:       1.2640                 4.8425                 2.7761
 IR Intens:        5.585                  7.766                 59.573
 Frequency:      1003.05                1053.67                1069.16
 Force Cnst:      3.8423                 1.6404                 2.5096
 Red. Mass:       6.4818                 2.5078                 3.7262
 IR Intens:       56.152                288.439                 35.015
 Frequency:      1078.55                1101.85                1126.66
 Force Cnst:      1.0634                 2.4843                 1.9241
 Red. Mass:       1.5516                 3.4731                 2.5727
 IR Intens:       25.656                288.190                169.408
 Frequency:      1229.57                1280.43                1326.42
 Force Cnst:      1.2025                 1.3917                 1.1421
 Red. Mass:       1.3500                 1.4407                 1.1018
 IR Intens:       23.785                  6.540                  0.934
 Frequency:      1367.11                1391.36                1411.97
 Force Cnst:      1.6841                 1.4130                 1.5835
 Red. Mass:       1.5294                 1.2388                 1.3481
 IR Intens:      135.464                 43.914                175.563
 Frequency:      1426.94                1437.18                1467.42
 Force Cnst:      4.8593                 3.2310                 1.4264
 Red. Mass:       4.0505                 2.6550                 1.1243
 IR Intens:      321.377                364.657                 20.755
 Frequency:      1470.16                1482.21                1494.37
 Force Cnst:      1.3504                 1.6709                 1.4871
 Red. Mass:       1.0604                 1.2908                 1.1303
 IR Intens:        4.716                 78.426                 17.479
 Frequency:      1582.33                3053.96                3062.06
 Force Cnst:     14.5784                 5.8286                 5.7200
 Red. Mass:       9.8825                 1.0607                 1.0354
 IR Intens:     1310.512                 79.635                 24.226
 Frequency:      3065.37                3105.88                3132.41
 Force Cnst:      5.8811                 6.2496                 6.3906
 Red. Mass:       1.0623                 1.0996                 1.1054
 IR Intens:       46.447                 12.014                 53.409
 Frequency:      3139.45                3147.06                3667.20
 Force Cnst:      6.4070                 6.4375                 8.4487
 Red. Mass:       1.1033                 1.1032                 1.0663
 IR Intens:       42.907                 42.714                143.427

 STANDARD THERMODYNAMIC QUANTITIES AT   298.15 K  AND     1.00 ATM

   This Molecule has  0 Imaginary Frequencies
   Zero point vibrational energy:       87.048 kcal/mol

   Atom    1 Element C  Has Mass   12.00000
   Atom    2 Element C  Has Mass   12.00000
   Atom    3 Element O  Has Mass   15.99491
   Atom    4 Element O  Has Mass   15.99491
   Atom    5 Element C  Has Mass   12.00000
   Atom    6 Element H  Has Mass    1.00783
   Atom    7 Element H  Has Mass    1.00783
   Atom    8 Element O  Has Mass   15.99491
   Atom    9 Element H  Has Mass    1.00783
   Atom   10 Element H  Has Mass    1.00783
   Atom   11 Element C  Has Mass   12.00000
   Atom   12 Element C  Has Mass   12.00000
   Atom   13 Element H  Has Mass    1.00783
   Atom   14 Element H  Has Mass    1.00783
   Atom   15 Element H  Has Mass    1.00783
   Atom   16 Element O  Has Mass   15.99491
   Atom   17 Element O  Has Mass   15.99491
   Atom   18 Element O  Has Mass   15.99491
   Atom   19 Element H  Has Mass    1.00783
   Molecular Mass:   164.032100 amu
   Principal axes and moments of inertia in amu*Bohr^2:
                             1           2           3
    Eigenvalues --      817.19760  3303.39093  3435.35670
          X               0.52501     0.75448     0.39386
          Y              -0.01912    -0.45219     0.89172
          Z               0.85088    -0.47569    -0.22298
   Rotational Symmetry Number is   1
   The Molecule is an Asymmetric Top
   Translational Enthalpy:        0.889 kcal/mol
   Rotational Enthalpy:           0.889 kcal/mol
   Vibrational Enthalpy:         92.617 kcal/mol
   gas constant (RT):             0.592 kcal/mol
   Translational Entropy:        41.193  cal/mol.K
   Rotational Entropy:           30.606  cal/mol.K
   Vibrational Entropy:          37.294  cal/mol.K

   Total Enthalpy:               94.987 kcal/mol
   Total Entropy:               109.093  cal/mol.K

 Total job time:  59484.74s(wall), 696526.81s(cpu)
        *  Thank you very much for using Q-Chem.  Have a nice day.  *
