 Q-Chem 5.0, Q-Chem, Inc., Pleasanton, CA (2017)
 Q-Chem 5.0.2 for Intel X86 EM64T Linux

User input:
--------------------------------------------------------------
$molecule
-2 1
C       -0.4166951826   -0.0073090837   -1.9094325931
C       -1.4492418791    0.6180131287   -2.8513165532
O       -2.2466278132   -0.1648805592   -3.4365242659
O       -1.4628172970    1.8755132969   -2.9497790437
C       -1.0242623554   -0.2152913510   -0.5112313932
H        0.4563237693    0.6471419249   -1.8255826959
H       -0.0968220908   -0.9782611663   -2.3035072594
O       -0.1548252428   -0.8224155391    0.3928600504
H       -1.9390473798   -0.8225617639   -0.6216644959
H       -1.3457607540    0.7698620345   -0.1246409064
C        0.6487346034    0.5423577214    1.6226902913
C        0.9202177981   -0.4612387654    2.7161990474
H        1.5336845893    0.0359002039    3.4762052848
H        1.4474610717   -1.3408494944    2.3528619407
H       -0.0278786800   -0.7575894485    3.1648705552
O       -0.1168944961    1.4898126830    1.7686166891
O        1.7295398178    0.8164793201    0.7636092769
O        2.2391748605   -0.4050178160    0.2230158165
H        1.3057366607   -0.8196653256    0.0527502544
$end

$rem
jobtype               freq
method                wb97x-v
basis                 def2-tzvpd
symmetry              off
sym_ignore            true
incdft                false
incfock               0
!scf_algorithm        diis_gdm
scf_convergence       8
thresh                14
!purecart             112
max_scf_cycles        1000
geom_opt_max_cycles   500
geom_opt_dmax         100
geom_opt_tol_gradient 10
solvent_method        pcm
ideriv                1
rpath_tol_displacement 1000
rpath_max_cycles      100
rpath_direction       1
!scf_guess            read
scf_guess             read
$end

$pcm
theory              cosmo
method              iswig
Radii               bondi
vdwScale            1.20
hpoints             110
heavypoints         110
$end

$solvent
dielectric 78.400000
$end

--------------------------------------------------------------

   17    -646.9494568544      2.35E-09 Convergence criterion met
 Total energy in the final basis set = -646.94945685
   14    -646.9494558750      7.32E-09 Convergence criterion met
 Total energy in the final basis set = -646.94945588
   14    -646.9494559003      6.06E-09 Convergence criterion met
 Total energy in the final basis set = -646.94945590
   14    -646.9494557312      8.22E-09 Convergence criterion met
 Total energy in the final basis set = -646.94945573
   14    -646.9494558467      5.84E-09 Convergence criterion met
 Total energy in the final basis set = -646.94945585
   14    -646.9494560965      7.79E-09 Convergence criterion met
 Total energy in the final basis set = -646.94945610
   14    -646.9494560902      6.58E-09 Convergence criterion met
 Total energy in the final basis set = -646.94945609
   14    -646.9494559861      6.66E-09 Convergence criterion met
 Total energy in the final basis set = -646.94945669
   14    -646.9494566775      5.65E-09 Convergence criterion met
 Total energy in the final basis set = -646.94945668
   14    -646.9494565464      8.35E-09 Convergence criterion met
 Total energy in the final basis set = -646.94945655
   14    -646.9494566000      5.84E-09 Convergence criterion met
 Total energy in the final basis set = -646.94945660
   14    -646.9494565783      8.00E-09 Convergence criterion met
 Total energy in the final basis set = -646.94945658
   16    -646.9494566559      8.58E-10 Convergence criterion met
 Total energy in the final basis set = -646.94945666
   16    -646.9494567602      6.32E-09 Convergence criterion met
 Total energy in the final basis set = -646.94945676
   16    -646.9494567158      2.84E-09 Convergence criterion met
 Total energy in the final basis set = -646.94945672

                    Orbital Energies (a.u.)
 --------------------------------------------------------------

 Alpha MOs
 -- Occupied --
-19.260 -19.231 -19.167 -19.139 -19.138 -19.138 -10.389 -10.337
-10.279 -10.250 -10.236  -1.251  -1.145  -1.140  -1.062  -1.045
 -0.989  -0.861  -0.845  -0.717  -0.677  -0.610  -0.598  -0.593
 -0.565  -0.551  -0.539  -0.528  -0.511  -0.505  -0.503  -0.481
 -0.466  -0.455  -0.452  -0.437  -0.414  -0.362  -0.353  -0.347
 -0.342  -0.328  -0.322  -0.315

          Ground-State Mulliken Net Atomic Charges

     Atom                 Charge (a.u.)
  ----------------------------------------
      1 C                     0.171298
      2 C                    -0.010348
      3 O                    -0.698451
      4 O                    -0.698801
      5 C                    -0.331212
      6 H                     0.086356
      7 H                     0.238200
      8 O                    -0.834027
      9 H                     0.211978
     10 H                     0.145054
     11 C                     0.711163
     12 C                    -0.764462
     13 H                     0.268506
     14 H                     0.196999
     15 H                     0.213245
     16 O                    -0.649483
     17 O                    -0.203737
     18 O                    -0.476693
     19 H                     0.424414
  ----------------------------------------
  Sum of atomic charges =    -2.000000

                    Cartesian Multipole Moments
 -----------------------------------------------------------------
    Charge (ESU x 10^10)
                -9.6064
    Dipole Moment (Debye)
         X       7.4899      Y      -7.4350      Z      13.0777
       Tot      16.8050
    Quadrupole Moments (Debye-Ang)
        XX    -103.0388     XY       6.2027     YY     -92.7681
        XZ     -33.6108     YZ       8.7150     ZZ    -129.6051

             Standard Nuclear Orientation (Angstroms)
    I     Atom           X                Y                Z
 ----------------------------------------------------------------
    1      C      -0.4166951826    -0.0073090837    -1.9094325931
    2      C      -1.4492418791     0.6180131287    -2.8513165532
    3      O      -2.2466278132    -0.1648805592    -3.4365242659
    4      O      -1.4628172970     1.8755132969    -2.9497790437
    5      C      -1.0242623554    -0.2152913510    -0.5112313932
    6      H       0.4563237693     0.6471419249    -1.8255826959
    7      H      -0.0968220908    -0.9782611663    -2.3035072594
    8      O      -0.1548252428    -0.8224155391     0.3928600504
    9      H      -1.9390473798    -0.8225617639    -0.6216644959
   10      H      -1.3457607540     0.7698620345    -0.1246409064
   11      C       0.6487346034     0.5423577214     1.6226902913
   12      C       0.9202177981    -0.4612387654     2.7161990474
   13      H       1.5336845893     0.0359002039     3.4762052848
   14      H       1.4474610717    -1.3408494944     2.3528619407
   15      H      -0.0278786800    -0.7575894485     3.1648705552
   16      O      -0.1168944961     1.4898126830     1.7686166891
   17      O       1.7295398178     0.8164793201     0.7636092769
   18      O       2.2391748605    -0.4050178160     0.2230158165
   19      H       1.3057366607    -0.8196653256     0.0527502544
 ----------------------------------------------------------------

 Frequency:      -274.93                  33.06                  43.28
 Force Cnst:      0.3564                 0.0064                 0.0059
 Red. Mass:       8.0022                 9.8752                 5.3546
 IR Intens:      287.167                  0.125                  0.015
 Frequency:        48.98                  66.85                 170.49
 Force Cnst:      0.0065                 0.0161                 0.0835
 Red. Mass:       4.6258                 6.1224                 4.8750
 IR Intens:        5.924                  1.581                 10.757
 Frequency:       187.96                 207.56                 256.40
 Force Cnst:      0.0337                 0.0491                 0.1474
 Red. Mass:       1.6177                 1.9351                 3.8045
 IR Intens:       20.795                 17.514                 43.811
 Frequency:       268.10                 334.06                 385.59
 Force Cnst:      0.1330                 0.3408                 0.4549
 Red. Mass:       3.1407                 5.1836                 5.1924
 IR Intens:       58.173                 11.157                128.615
 Frequency:       422.66                 461.99                 503.89
 Force Cnst:      0.6858                 0.3850                 0.6263
 Red. Mass:       6.5162                 3.0616                 4.1866
 IR Intens:       10.398                 12.163                 20.316
 Frequency:       565.94                 614.22                 671.15
 Force Cnst:      1.1976                 1.0855                 1.3601
 Red. Mass:       6.3462                 4.8835                 5.1247
 IR Intens:       34.264                107.538                 44.081
 Frequency:       780.52                 795.68                 816.42
 Force Cnst:      2.7191                 0.4577                 2.1271
 Red. Mass:       7.5753                 1.2270                 5.4163
 IR Intens:       35.043                  2.961                116.049
 Frequency:       948.98                1006.13                1015.88
 Force Cnst:      2.5186                 1.1511                 1.1886
 Red. Mass:       4.7467                 1.9299                 1.9548
 IR Intens:        7.389                 21.450                109.769
 Frequency:      1044.91                1045.56                1072.07
 Force Cnst:      1.3253                 2.7767                 1.0383
 Red. Mass:       2.0602                 4.3110                 1.5333
 IR Intens:      144.482                 10.861                 23.686
 Frequency:      1086.45                1131.64                1191.34
 Force Cnst:      1.2897                 2.2867                 2.8138
 Red. Mass:       1.8545                 3.0307                 3.3649
 IR Intens:       87.372                321.172                360.403
 Frequency:      1216.09                1273.16                1313.23
 Force Cnst:      1.1360                 1.4092                 1.0976
 Red. Mass:       1.3038                 1.4755                 1.0802
 IR Intens:       34.124                  4.948                  2.605
 Frequency:      1387.83                1394.61                1425.99
 Force Cnst:      1.4941                 1.5225                 4.3992
 Red. Mass:       1.3166                 1.3286                 3.6719
 IR Intens:      183.824                 41.085                261.525
 Frequency:      1460.08                1469.91                1477.55
 Force Cnst:      1.3338                 1.3346                 1.6734
 Red. Mass:       1.0619                 1.0484                 1.3009
 IR Intens:       10.495                 25.418                124.773
 Frequency:      1491.64                1513.82                1571.96
 Force Cnst:      1.4886                 1.5663                14.3361
 Red. Mass:       1.1356                 1.1600                 9.8468
 IR Intens:       54.669                300.780               1303.326
 Frequency:      1676.27                2578.35                2945.72
 Force Cnst:     16.0514                 4.1904                 5.4126
 Red. Mass:       9.6956                 1.0698                 1.0587
 IR Intens:      653.529               1339.913                115.426
 Frequency:      2972.64                3057.13                3066.44
 Force Cnst:      5.7218                 5.8341                 5.7864
 Red. Mass:       1.0990                 1.0595                 1.0445
 IR Intens:      117.512                 52.474                 23.033
 Frequency:      3113.13                3152.17                3193.40
 Force Cnst:      6.3117                 6.3974                 6.6309
 Red. Mass:       1.1054                 1.0928                 1.1036
 IR Intens:       69.573                 19.926                 13.873

 STANDARD THERMODYNAMIC QUANTITIES AT   298.15 K  AND     1.00 ATM

   This Molecule has  1 Imaginary Frequencies
   Zero point vibrational energy:       85.673 kcal/mol

   Atom    1 Element C  Has Mass   12.00000
   Atom    2 Element C  Has Mass   12.00000
   Atom    3 Element O  Has Mass   15.99491
   Atom    4 Element O  Has Mass   15.99491
   Atom    5 Element C  Has Mass   12.00000
   Atom    6 Element H  Has Mass    1.00783
   Atom    7 Element H  Has Mass    1.00783
   Atom    8 Element O  Has Mass   15.99491
   Atom    9 Element H  Has Mass    1.00783
   Atom   10 Element H  Has Mass    1.00783
   Atom   11 Element C  Has Mass   12.00000
   Atom   12 Element C  Has Mass   12.00000
   Atom   13 Element H  Has Mass    1.00783
   Atom   14 Element H  Has Mass    1.00783
   Atom   15 Element H  Has Mass    1.00783
   Atom   16 Element O  Has Mass   15.99491
   Atom   17 Element O  Has Mass   15.99491
   Atom   18 Element O  Has Mass   15.99491
   Atom   19 Element H  Has Mass    1.00783
   Molecular Mass:   164.032100 amu
   Principal axes and moments of inertia in amu*Bohr^2:
                             1           2           3
    Eigenvalues --      819.76902  3487.03781  3552.00241
          X               0.50869    -0.56195     0.65227
          Y              -0.07691     0.72492     0.68453
          Z               0.85751     0.39837    -0.32554
   Rotational Symmetry Number is   1
   The Molecule is an Asymmetric Top
   Translational Enthalpy:        0.889 kcal/mol
   Rotational Enthalpy:           0.889 kcal/mol
   Vibrational Enthalpy:         91.043 kcal/mol
   gas constant (RT):             0.592 kcal/mol
   Translational Entropy:        41.193  cal/mol.K
   Rotational Entropy:           30.696  cal/mol.K
   Vibrational Entropy:          37.247  cal/mol.K

   Total Enthalpy:               93.413 kcal/mol
   Total Entropy:               109.136  cal/mol.K

 Total job time:  163068.79s(wall), 612004.60s(cpu)
        *  Thank you very much for using Q-Chem.  Have a nice day.  *
