 Q-Chem 5.0, Q-Chem, Inc., Pleasanton, CA (2017)
 Q-Chem 5.0.2 for Intel X86 EM64T Linux

User input:
--------------------------------------------------------------
$molecule
-2 1
C       -0.4026642934   -0.2877547841   -1.9704569266
C       -1.5485832261    0.6437762870   -2.3859438481
O       -2.3961212164    0.1904739575   -3.2002418610
O       -1.5828922405    1.7855673624   -1.8537244945
C       -0.7846351248   -1.0619205855   -0.7073324755
H        0.4950502106    0.3024464365   -1.7630027395
H       -0.1876018867   -1.0003066892   -2.7724763344
O        0.2415050301   -1.9336343247   -0.2670933505
H       -1.6702073568   -1.6762412657   -0.9079192183
H       -1.0547381783   -0.3491158816    0.0870789743
C        0.9636284473    1.1838070804    1.6323765178
C        0.7184180538    0.1720925524    2.7130440134
H        1.6678988599   -0.1468980789    3.1474424594
H        0.2420978334   -0.7167135199    2.2931714791
H        0.0810868448    0.6227352783    3.4733687949
O        0.4914442431    2.3129220257    1.6401018414
O        1.7337895835    0.8442458519    0.6084450283
O        2.2535148519   -0.4964964590    0.6458504472
H        1.0133090686   -1.3778827165    0.0593020286
$end

$rem
jobtype               freq
method                wb97x-v
basis                 def2-tzvpd
symmetry              off
sym_ignore            true
incdft                false
incfock               0
!scf_algorithm        diis_gdm
scf_convergence       8
thresh                14
!purecart             112
max_scf_cycles        1000
geom_opt_max_cycles   500
geom_opt_dmax         100
geom_opt_tol_gradient 10
solvent_method        pcm
ideriv                1
rpath_tol_displacement 1000
rpath_max_cycles      100
rpath_direction       1
!scf_guess            read
scf_guess             read
$end

$pcm
theory              cosmo
method              iswig
Radii               bondi
vdwScale            1.20
hpoints             110
heavypoints         110
$end

$solvent
dielectric 78.400000
$end

--------------------------------------------------------------

   17    -646.9797278751      3.91E-09 Convergence criterion met
 Total energy in the final basis set = -646.97972788
   14    -646.9797269146      7.76E-09 Convergence criterion met
 Total energy in the final basis set = -646.97972691
   14    -646.9797268990      7.18E-09 Convergence criterion met
 Total energy in the final basis set = -646.97972690
   14    -646.9797269848      7.88E-09 Convergence criterion met
 Total energy in the final basis set = -646.97972698
   14    -646.9797268414      7.24E-09 Convergence criterion met
 Total energy in the final basis set = -646.97972684
   14    -646.9797270636      7.64E-09 Convergence criterion met
 Total energy in the final basis set = -646.97972706
   14    -646.9797268877      7.40E-09 Convergence criterion met
 Total energy in the final basis set = -646.97972689
   14    -646.9797270253      7.04E-09 Convergence criterion met
 Total energy in the final basis set = -646.97972778
   15    -646.9797278068      6.39E-09 Convergence criterion met
 Total energy in the final basis set = -646.97972781
   16    -646.9797273534      1.09E-09 Convergence criterion met
 Total energy in the final basis set = -646.97972735
   14    -646.9797276268      8.64E-09 Convergence criterion met
 Total energy in the final basis set = -646.97972763
   15    -646.9797275215      8.32E-09 Convergence criterion met
 Total energy in the final basis set = -646.97972752
   15    -646.9797276913      2.74E-09 Convergence criterion met
 Total energy in the final basis set = -646.97972769
   16    -646.9797277188      3.90E-09 Convergence criterion met
 Total energy in the final basis set = -646.97972772
   15    -646.9797278087      6.26E-09 Convergence criterion met
 Total energy in the final basis set = -646.97972781

                    Orbital Energies (a.u.)
 --------------------------------------------------------------

 Alpha MOs
 -- Occupied --
-19.267 -19.184 -19.177 -19.170 -19.140 -19.140 -10.386 -10.341
-10.297 -10.261 -10.242  -1.240  -1.146  -1.143  -1.116  -1.049
 -0.950  -0.868  -0.864  -0.736  -0.658  -0.613  -0.610  -0.593
 -0.573  -0.569  -0.552  -0.538  -0.515  -0.502  -0.500  -0.492
 -0.471  -0.466  -0.459  -0.444  -0.408  -0.384  -0.367  -0.347
 -0.334  -0.330  -0.328  -0.312

          Ground-State Mulliken Net Atomic Charges

     Atom                 Charge (a.u.)
  ----------------------------------------
      1 C                     0.130522
      2 C                     0.134847
      3 O                    -0.702787
      4 O                    -0.692591
      5 C                    -0.403002
      6 H                     0.122191
      7 H                     0.154275
      8 O                    -0.589337
      9 H                     0.273534
     10 H                     0.140063
     11 C                     0.442465
     12 C                    -0.427548
     13 H                     0.222791
     14 H                     0.159148
     15 H                     0.191283
     16 O                    -0.604857
     17 O                    -0.120411
     18 O                    -0.772242
     19 H                     0.341655
  ----------------------------------------
  Sum of atomic charges =    -2.000000

                    Cartesian Multipole Moments
 -----------------------------------------------------------------
    Charge (ESU x 10^10)
                -9.6064
    Dipole Moment (Debye)
         X       3.2819      Y      -6.5840      Z      10.8648
       Tot      13.1211
    Quadrupole Moments (Debye-Ang)
        XX    -110.6748     XY      12.0148     YY    -104.4545
        XZ     -32.3476     YZ       3.6812     ZZ    -105.1978

             Standard Nuclear Orientation (Angstroms)
    I     Atom           X                Y                Z
 ----------------------------------------------------------------
    1      C      -0.4026642934    -0.2877547841    -1.9704569266
    2      C      -1.5485832261     0.6437762870    -2.3859438481
    3      O      -2.3961212164     0.1904739575    -3.2002418610
    4      O      -1.5828922405     1.7855673624    -1.8537244945
    5      C      -0.7846351248    -1.0619205855    -0.7073324755
    6      H       0.4950502106     0.3024464365    -1.7630027395
    7      H      -0.1876018867    -1.0003066892    -2.7724763344
    8      O       0.2415050301    -1.9336343247    -0.2670933505
    9      H      -1.6702073568    -1.6762412657    -0.9079192183
   10      H      -1.0547381783    -0.3491158816     0.0870789743
   11      C       0.9636284473     1.1838070804     1.6323765178
   12      C       0.7184180538     0.1720925524     2.7130440134
   13      H       1.6678988599    -0.1468980789     3.1474424594
   14      H       0.2420978334    -0.7167135199     2.2931714791
   15      H       0.0810868448     0.6227352783     3.4733687949
   16      O       0.4914442431     2.3129220257     1.6401018414
   17      O       1.7337895835     0.8442458519     0.6084450283
   18      O       2.2535148519    -0.4964964590     0.6458504472
   19      H       1.0133090686    -1.3778827165     0.0593020286
 ----------------------------------------------------------------

 Frequency:        22.88                  32.54                  44.77
 Force Cnst:      0.0040                 0.0044                 0.0109
 Red. Mass:      13.0118                 7.0058                 9.2654
 IR Intens:        3.148                  3.872                  1.648
 Frequency:        60.67                  66.18                  89.63
 Force Cnst:      0.0102                 0.0163                 0.0155
 Red. Mass:       4.6813                 6.3260                 3.2644
 IR Intens:        2.845                 15.360                  4.177
 Frequency:       154.14                 176.65                 202.03
 Force Cnst:      0.0573                 0.0209                 0.0981
 Red. Mass:       4.0940                 1.1376                 4.0813
 IR Intens:       12.853                  4.603                 28.768
 Frequency:       222.82                 291.81                 324.94
 Force Cnst:      0.1276                 0.3883                 0.2853
 Red. Mass:       4.3638                 7.7400                 4.5858
 IR Intens:        1.811                 80.262                 26.869
 Frequency:       386.83                 462.53                 510.80
 Force Cnst:      0.6182                 0.3773                 0.6312
 Red. Mass:       7.0121                 2.9937                 4.1057
 IR Intens:        7.274                  3.315                 18.115
 Frequency:       581.14                 587.85                 669.23
 Force Cnst:      0.5221                 1.3658                 1.3541
 Red. Mass:       2.6237                 6.7079                 5.1313
 IR Intens:       11.316                  8.575                 42.145
 Frequency:       782.04                 798.04                 837.66
 Force Cnst:      2.9543                 0.4442                 2.2933
 Red. Mass:       8.1988                 1.1837                 5.5471
 IR Intens:       23.127                  3.521                 33.628
 Frequency:       914.40                 948.75                1013.39
 Force Cnst:      0.5246                 2.4560                 1.1211
 Red. Mass:       1.0649                 4.6310                 1.8528
 IR Intens:      149.419                 11.659                 54.058
 Frequency:      1040.99                1061.63                1064.11
 Force Cnst:      3.5081                 1.3174                 1.6733
 Red. Mass:       5.4945                 1.9840                 2.5081
 IR Intens:        9.835                 20.060                 14.710
 Frequency:      1068.80                1097.12                1200.55
 Force Cnst:      1.2812                 3.8953                 1.0047
 Red. Mass:       1.9037                 5.4926                 1.1831
 IR Intens:       25.163                191.173                 25.887
 Frequency:      1277.02                1317.17                1329.89
 Force Cnst:      1.4019                 1.1217                 2.7311
 Red. Mass:       1.4591                 1.0974                 2.6210
 IR Intens:        3.622                 10.305                373.550
 Frequency:      1403.07                1407.55                1426.35
 Force Cnst:      1.6365                 1.9767                 5.0846
 Red. Mass:       1.4110                 1.6934                 4.2418
 IR Intens:      118.861                187.499                302.467
 Frequency:      1444.45                1452.27                1478.87
 Force Cnst:      1.3239                 1.3018                 1.6337
 Red. Mass:       1.0770                 1.0476                 1.2678
 IR Intens:       19.812                 14.336                 60.943
 Frequency:      1508.25                1569.78                1582.53
 Force Cnst:      1.4580                 1.6358                12.9798
 Red. Mass:       1.0878                 1.1267                 8.7966
 IR Intens:        4.143                 78.806               1283.792
 Frequency:      1717.23                2959.86                3012.20
 Force Cnst:     18.4388                 5.5558                 5.7315
 Red. Mass:      10.6127                 1.0764                 1.0721
 IR Intens:      780.325               1994.435                384.924
 Frequency:      3069.90                3072.19                3082.44
 Force Cnst:      5.8773                 6.0838                 5.7958
 Red. Mass:       1.0585                 1.0940                 1.0353
 IR Intens:       44.539                  2.310                  4.653
 Frequency:      3125.29                3158.31                3181.62
 Force Cnst:      6.3718                 6.4654                 6.5978
 Red. Mass:       1.1072                 1.1001                 1.1062
 IR Intens:       59.103                  2.558                 12.618

 STANDARD THERMODYNAMIC QUANTITIES AT   298.15 K  AND     1.00 ATM

   This Molecule has  0 Imaginary Frequencies
   Zero point vibrational energy:       86.191 kcal/mol

   Atom    1 Element C  Has Mass   12.00000
   Atom    2 Element C  Has Mass   12.00000
   Atom    3 Element O  Has Mass   15.99491
   Atom    4 Element O  Has Mass   15.99491
   Atom    5 Element C  Has Mass   12.00000
   Atom    6 Element H  Has Mass    1.00783
   Atom    7 Element H  Has Mass    1.00783
   Atom    8 Element O  Has Mass   15.99491
   Atom    9 Element H  Has Mass    1.00783
   Atom   10 Element H  Has Mass    1.00783
   Atom   11 Element C  Has Mass   12.00000
   Atom   12 Element C  Has Mass   12.00000
   Atom   13 Element H  Has Mass    1.00783
   Atom   14 Element H  Has Mass    1.00783
   Atom   15 Element H  Has Mass    1.00783
   Atom   16 Element O  Has Mass   15.99491
   Atom   17 Element O  Has Mass   15.99491
   Atom   18 Element O  Has Mass   15.99491
   Atom   19 Element H  Has Mass    1.00783
   Molecular Mass:   164.032100 amu
   Principal axes and moments of inertia in amu*Bohr^2:
                             1           2           3
    Eigenvalues --     1175.85987  3079.89904  3717.63936
          X               0.58435    -0.25030     0.77193
          Y               0.05554     0.96135     0.26967
          Z               0.80960     0.11471    -0.57567
   Rotational Symmetry Number is   1
   The Molecule is an Asymmetric Top
   Translational Enthalpy:        0.889 kcal/mol
   Rotational Enthalpy:           0.889 kcal/mol
   Vibrational Enthalpy:         92.453 kcal/mol
   gas constant (RT):             0.592 kcal/mol
   Translational Entropy:        41.193  cal/mol.K
   Rotational Entropy:           30.977  cal/mol.K
   Vibrational Entropy:          46.474  cal/mol.K

   Total Enthalpy:               94.823 kcal/mol
   Total Entropy:               118.644  cal/mol.K

 Total job time:  47843.13s(wall), 664767.66s(cpu)
        *  Thank you very much for using Q-Chem.  Have a nice day.  *
