 Q-Chem 5.0, Q-Chem, Inc., Pleasanton, CA (2017)
 Q-Chem 5.0.2 for Intel X86 EM64T Linux

User input:
--------------------------------------------------------------
$molecule
-2 1
C       -2.8588495558    1.2067830004    0.1650521128
C        0.7233869631    0.4713561358    0.3733310110
C        0.5026579567   -0.5618640726   -0.4322614435
H       -0.0672869194    1.1736241922    0.6234325250
H        1.7032141674    0.6351949167    0.8138859337
H        3.4735256479    1.7372753438   -0.7607152782
O       -2.9702182449    1.1864567810   -1.0893165834
C       -3.0972907023   -0.1039574054    0.9194435435
H       -2.4208325321   -0.1872298332    1.7734465132
H       -4.1225751679   -0.1011467851    1.3054377618
H       -2.9786944538   -0.9691544189    0.2642853981
O       -2.5881172843    2.2245872685    0.8570147165
H       -0.4856514307   -0.7333317435   -0.8537952754
C        1.5490692601   -1.5975523632   -0.7836206484
O        1.1286959316   -2.6529240494   -1.3135402445
O        2.7593056734   -1.3457590054   -0.5159054359
O        4.0628211923    0.9900541305   -0.9087414532
H        3.5144395902    0.1867406283   -0.7349256637
$end

$rem
jobtype               freq
method                wb97x-v
basis                 def2-tzvpd
symmetry              off
sym_ignore            true
incdft                false
incfock               0
!scf_algorithm        diis_gdm
scf_convergence       8
thresh                14
!purecart             112
max_scf_cycles        1000
geom_opt_max_cycles   500
geom_opt_dmax         100
geom_opt_tol_gradient 10
solvent_method        pcm
ideriv                1
rpath_tol_displacement 1000
rpath_max_cycles      100
rpath_direction       1
$end

$pcm
theory              cosmo
method              iswig
Radii               bondi
vdwScale            1.20
hpoints             110
heavypoints         110
$end

$solvent
dielectric 78.400000
$end

--------------------------------------------------------------

   14    -571.8381388133      9.01E-09 Convergence criterion met
 Total energy in the final basis set = -571.83813881
   14    -571.8381383100      6.14E-09 Convergence criterion met
 Total energy in the final basis set = -571.83813831
   14    -571.8381383185      7.72E-09 Convergence criterion met
 Total energy in the final basis set = -571.83813832
   14    -571.8381376762      6.79E-09 Convergence criterion met
 Total energy in the final basis set = -571.83813768
   14    -571.8381376749      6.43E-09 Convergence criterion met
 Total energy in the final basis set = -571.83813767
   14    -571.8381374619      5.53E-09 Convergence criterion met
 Total energy in the final basis set = -571.83813746
   14    -571.8381374490      6.71E-09 Convergence criterion met
 Total energy in the final basis set = -571.83813745
   14    -571.8381377102      5.73E-09 Convergence criterion met
 Total energy in the final basis set = -571.83813876
   15    -571.8381387358      4.34E-09 Convergence criterion met
 Total energy in the final basis set = -571.83813874
   16    -571.8381385314      2.10E-09 Convergence criterion met
 Total energy in the final basis set = -571.83813853
   14    -571.8381385387      6.43E-09 Convergence criterion met
 Total energy in the final basis set = -571.83813854
   14    -571.8381382910      6.16E-09 Convergence criterion met
 Total energy in the final basis set = -571.83813829
   14    -571.8381382881      7.06E-09 Convergence criterion met
 Total energy in the final basis set = -571.83813829
   16    -571.8381387456      4.17E-09 Convergence criterion met
 Total energy in the final basis set = -571.83813875
   16    -571.8381387657      4.37E-09 Convergence criterion met
 Total energy in the final basis set = -571.83813877

                    Orbital Energies (a.u.)
 --------------------------------------------------------------

 Alpha MOs
 -- Occupied --
-19.189 -19.153 -19.151 -19.140 -19.139 -10.354 -10.342 -10.263
-10.262 -10.242  -1.157  -1.143  -1.112  -1.062  -1.049  -0.896
 -0.832  -0.724  -0.633  -0.612  -0.604  -0.568  -0.548  -0.533
 -0.529  -0.528  -0.519  -0.505  -0.480  -0.476  -0.466  -0.450
 -0.410  -0.370  -0.359  -0.355  -0.347  -0.342  -0.338  -0.330

          Ground-State Mulliken Net Atomic Charges

     Atom                 Charge (a.u.)
  ----------------------------------------
      1 C                     0.405074
      2 C                    -0.754791
      3 C                     0.326784
      4 H                     0.176173
      5 H                     0.242820
      6 H                     0.341727
      7 O                    -0.708230
      8 C                    -0.574023
      9 H                     0.194666
     10 H                     0.223133
     11 H                     0.198048
     12 O                    -0.711072
     13 H                     0.346529
     14 C                     0.062510
     15 O                    -0.669403
     16 O                    -0.750704
     17 O                    -0.681272
     18 H                     0.332032
  ----------------------------------------
  Sum of atomic charges =    -2.000000

                    Cartesian Multipole Moments
 -----------------------------------------------------------------
    Charge (ESU x 10^10)
                -9.6064
    Dipole Moment (Debye)
         X      -0.4785      Y       0.1806      Z       7.0842
       Tot       7.1027
    Quadrupole Moments (Debye-Ang)
        XX    -146.6201     XY      39.4713     YY    -109.0501
        XZ       7.4639     YZ     -11.5399     ZZ     -80.1174

             Standard Nuclear Orientation (Angstroms)
    I     Atom           X                Y                Z
 ----------------------------------------------------------------
    1      C      -2.8588495558     1.2067830004     0.1650521128
    2      C       0.7233869631     0.4713561358     0.3733310110
    3      C       0.5026579567    -0.5618640726    -0.4322614435
    4      H      -0.0672869194     1.1736241922     0.6234325250
    5      H       1.7032141674     0.6351949167     0.8138859337
    6      H       3.4735256479     1.7372753438    -0.7607152782
    7      O      -2.9702182449     1.1864567810    -1.0893165834
    8      C      -3.0972907023    -0.1039574054     0.9194435435
    9      H      -2.4208325321    -0.1872298332     1.7734465132
   10      H      -4.1225751679    -0.1011467851     1.3054377618
   11      H      -2.9786944538    -0.9691544189     0.2642853981
   12      O      -2.5881172843     2.2245872685     0.8570147165
   13      H      -0.4856514307    -0.7333317435    -0.8537952754
   14      C       1.5490692601    -1.5975523632    -0.7836206484
   15      O       1.1286959316    -2.6529240494    -1.3135402445
   16      O       2.7593056734    -1.3457590054    -0.5159054359
   17      O       4.0628211923     0.9900541305    -0.9087414532
   18      H       3.5144395902     0.1867406283    -0.7349256637
 ----------------------------------------------------------------

 Frequency:        19.89                  34.72                  40.99
 Force Cnst:      0.0014                 0.0047                 0.0043
 Red. Mass:       6.1506                 6.6445                 4.2932
 IR Intens:       10.554                  1.016                  1.318
 Frequency:        44.13                  48.93                  53.32
 Force Cnst:      0.0050                 0.0148                 0.0104
 Red. Mass:       4.3430                10.5216                 6.2329
 IR Intens:        9.647                  4.680                 17.541
 Frequency:        56.07                  61.25                  79.02
 Force Cnst:      0.0087                 0.0026                 0.0158
 Red. Mass:       4.7198                 1.1854                 4.2967
 IR Intens:       17.244                  2.727                  1.401
 Frequency:       103.13                 137.08                 208.93
 Force Cnst:      0.0089                 0.0189                 0.1833
 Red. Mass:       1.4253                 1.7035                 7.1267
 IR Intens:       93.609                 82.457                 44.388
 Frequency:       298.55                 457.70                 463.55
 Force Cnst:      0.1922                 0.3743                 0.1370
 Red. Mass:       3.6608                 3.0329                 1.0820
 IR Intens:        0.620                  2.024                136.284
 Frequency:       497.07                 565.77                 618.71
 Force Cnst:      0.3069                 0.5076                 0.5978
 Red. Mass:       2.1082                 2.6917                 2.6503
 IR Intens:        1.418                 10.295                 17.758
 Frequency:       650.32                 659.26                 723.63
 Force Cnst:      1.1425                 0.9655                 0.3195
 Red. Mass:       4.5854                 3.7705                 1.0355
 IR Intens:       28.182                 37.899                143.149
 Frequency:       865.10                 895.57                 922.37
 Force Cnst:      1.8205                 2.0142                 3.1440
 Red. Mass:       4.1287                 4.2623                 6.2722
 IR Intens:       53.266                 51.018                 24.219
 Frequency:      1017.69                1025.30                1048.18
 Force Cnst:      0.7888                 0.9027                 0.7467
 Red. Mass:       1.2927                 1.4575                 1.1535
 IR Intens:       74.996                 21.724                 21.143
 Frequency:      1059.74                1070.63                1297.86
 Force Cnst:      1.2938                 1.0529                 1.3195
 Red. Mass:       1.9554                 1.5590                 1.3295
 IR Intens:       16.615                 18.615                 14.584
 Frequency:      1360.24                1396.43                1433.60
 Force Cnst:      1.5186                 2.5485                 4.0607
 Red. Mass:       1.3930                 2.2182                 3.3535
 IR Intens:        9.855                162.339                343.613
 Frequency:      1451.87                1454.54                1472.35
 Force Cnst:      1.4172                 2.5379                 1.4929
 Red. Mass:       1.1411                 2.0360                 1.1688
 IR Intens:      116.357                279.974                 42.176
 Frequency:      1583.57                1592.09                1640.74
 Force Cnst:     11.6694                15.4643                 1.7139
 Red. Mass:       7.8981                10.3549                 1.0806
 IR Intens:     1310.462               1234.540                145.126
 Frequency:      1722.85                3056.35                3128.23
 Force Cnst:      8.8366                 5.7082                 6.3360
 Red. Mass:       5.0529                 1.0372                 1.0989
 IR Intens:       43.208                 14.631                 29.826
 Frequency:      3151.59                3152.24                3181.05
 Force Cnst:      6.3411                 6.3202                 6.5225
 Red. Mass:       1.0836                 1.0796                 1.0940
 IR Intens:       42.333                  5.952                 12.856
 Frequency:      3242.81                3339.00                3876.20
 Force Cnst:      6.9182                 7.0150                 9.4394
 Red. Mass:       1.1166                 1.0679                 1.0663
 IR Intens:        4.030               1405.146                 83.204

 STANDARD THERMODYNAMIC QUANTITIES AT   298.15 K  AND     1.00 ATM

   This Molecule has  0 Imaginary Frequencies
   Zero point vibrational energy:       80.428 kcal/mol

   Atom    1 Element C  Has Mass   12.00000
   Atom    2 Element C  Has Mass   12.00000
   Atom    3 Element C  Has Mass   12.00000
   Atom    4 Element H  Has Mass    1.00783
   Atom    5 Element H  Has Mass    1.00783
   Atom    6 Element H  Has Mass    1.00783
   Atom    7 Element O  Has Mass   15.99491
   Atom    8 Element C  Has Mass   12.00000
   Atom    9 Element H  Has Mass    1.00783
   Atom   10 Element H  Has Mass    1.00783
   Atom   11 Element H  Has Mass    1.00783
   Atom   12 Element O  Has Mass   15.99491
   Atom   13 Element H  Has Mass    1.00783
   Atom   14 Element C  Has Mass   12.00000
   Atom   15 Element O  Has Mass   15.99491
   Atom   16 Element O  Has Mass   15.99491
   Atom   17 Element O  Has Mass   15.99491
   Atom   18 Element H  Has Mass    1.00783
   Molecular Mass:   148.037190 amu
   Principal axes and moments of inertia in amu*Bohr^2:
                             1           2           3
    Eigenvalues --     1067.43764  4062.10920  4718.45240
          X               0.93076     0.34756     0.11354
          Y              -0.32064     0.92512    -0.20334
          Z              -0.17571     0.15286     0.97250
   Rotational Symmetry Number is   1
   The Molecule is an Asymmetric Top
   Translational Enthalpy:        0.889 kcal/mol
   Rotational Enthalpy:           0.889 kcal/mol
   Vibrational Enthalpy:         87.785 kcal/mol
   gas constant (RT):             0.592 kcal/mol
   Translational Entropy:        40.887  cal/mol.K
   Rotational Entropy:           31.392  cal/mol.K
   Vibrational Entropy:          59.757  cal/mol.K

   Total Enthalpy:               90.155 kcal/mol
   Total Entropy:               132.036  cal/mol.K

 Total job time:  30923.32s(wall), 418694.59s(cpu)
        *  Thank you very much for using Q-Chem.  Have a nice day.  *
