 Q-Chem 5.0, Q-Chem, Inc., Pleasanton, CA (2017)
 Q-Chem 5.0.2 for Intel X86 EM64T Linux

User input:
--------------------------------------------------------------
$molecule
-3 1
C        0.4896174721    0.9335027394   -3.3765187097
O        0.2319549758    2.0550288498   -3.8974854120
O        0.9926862780   -0.0498280642   -3.9790057245
C        0.1303474574    0.7883555104   -1.8868453222
H       -0.9574001929    0.8786815139   -1.8233963774
H        0.5309285826    1.6602778494   -1.3656902427
C        0.5994832749   -0.4930171712   -1.2117471238
H        1.6820332063   -0.5924910727   -1.3098657795
H        0.1528838638   -1.3597003005   -1.7046107669
C        0.2721993619   -0.5966472771    0.2845547178
C       -1.2331477220   -0.5619039403    0.5632123081
H       -1.6593248309    0.4014835991    0.2814492020
H       -1.4073602763   -0.7185189725    1.6268358923
H       -1.7440598583   -1.3466325101    0.0019936662
O        0.7928125618   -1.8612597208    0.7314955055
O        0.9487150280    0.4258939837    0.9480585962
H        0.9435919388   -1.6619975320    1.6801916735
O        0.9616242818   -0.0510109086    2.6427506445
H        0.0480574845    0.1595765717    3.2571987107
O       -0.7735065588    0.2905588709    4.2326995319
O       -1.0021363268    1.6996479798    4.3047250102
$end

$rem
jobtype               freq
method                b3lyp
basis                 def2-tzvpd
dft_d                 d3_bj
symmetry              off
sym_ignore            true
incdft                false
incfock               0
!scf_algorithm        diis_gdm
scf_convergence       8
thresh                14
unrestricted          true
!purecart             112
scf_guess             read
max_scf_cycles        1000
geom_opt_max_cycles   500
geom_opt_dmax         100
geom_opt_tol_gradient 10
solvent_method        pcm
ideriv                1
rpath_tol_displacement 1000
rpath_max_cycles      100
rpath_direction       1
$end

$pcm
theory              cosmo
method              iswig
Radii               bondi
vdwScale            1.20
hpoints             110
heavypoints         110
$end

$solvent
dielectric 78.400000
$end

--------------------------------------------------------------

   26    -723.0587998517      6.53E-09 Convergence criterion met
 Total energy in the final basis set = -723.05879985
   26    -723.0587993139      6.44E-09 Convergence criterion met
 Total energy in the final basis set = -723.05879931
   26    -723.0587992294      4.89E-09 Convergence criterion met
 Total energy in the final basis set = -723.05879923
   26    -723.0587985884      5.62E-09 Convergence criterion met
 Total energy in the final basis set = -723.05879859
   26    -723.0587985594      3.85E-09 Convergence criterion met
 Total energy in the final basis set = -723.05879856
   26    -723.0587987125      5.04E-09 Convergence criterion met
 Total energy in the final basis set = -723.05879871
   26    -723.0587990250      5.03E-09 Convergence criterion met
 Total energy in the final basis set = -723.05879903
   26    -723.0587997678      6.22E-09 Convergence criterion met
 Total energy in the final basis set = -723.05880046
   26    -723.0587991053      6.88E-09 Convergence criterion met
 Total energy in the final basis set = -723.05879911
   26    -723.0588000121      6.20E-09 Convergence criterion met
 Total energy in the final basis set = -723.05880001
   26    -723.0587996264      6.64E-09 Convergence criterion met
 Total energy in the final basis set = -723.05879963
   26    -723.0588000095      6.82E-09 Convergence criterion met
 Total energy in the final basis set = -723.05880001
   26    -723.0587992085      5.34E-09 Convergence criterion met
 Total energy in the final basis set = -723.05879921
   26    -723.0588004986      7.29E-09 Convergence criterion met
 Total energy in the final basis set = -723.05880050
   26    -723.0587991754      6.42E-09 Convergence criterion met
 Total energy in the final basis set = -723.05879918

                    Orbital Energies (a.u.)
 --------------------------------------------------------------

 Alpha MOs
 -- Occupied --
-19.111 -19.099 -19.087 -19.081 -19.057 -19.055 -19.054 -10.245
-10.242 -10.149 -10.149 -10.139  -1.030  -1.012  -0.971  -0.946
 -0.922  -0.860  -0.763  -0.705  -0.694  -0.642  -0.536  -0.495
 -0.472  -0.455  -0.448  -0.424  -0.419  -0.404  -0.401  -0.389
 -0.372  -0.353  -0.347  -0.338  -0.333  -0.321  -0.320  -0.299
 -0.279  -0.267  -0.249  -0.247  -0.239  -0.233  -0.225  -0.153
 -0.137

 Beta MOs
 -- Occupied --
-19.104 -19.099 -19.088 -19.082 -19.061 -19.057 -19.054 -10.246
-10.242 -10.149 -10.149 -10.139  -1.025  -1.012  -0.983  -0.937
 -0.922  -0.851  -0.761  -0.711  -0.703  -0.641  -0.535  -0.493
 -0.469  -0.454  -0.446  -0.427  -0.419  -0.404  -0.400  -0.388
 -0.372  -0.353  -0.348  -0.344  -0.333  -0.321  -0.318  -0.303
 -0.281  -0.263  -0.247  -0.246  -0.238  -0.232  -0.225  -0.173
 -0.155

          Ground-State Mulliken Net Atomic Charges

     Atom                 Charge (a.u.)    Spin (a.u.)
  --------------------------------------------------------
      1 C                     0.208494      -0.000105
      2 O                    -0.782006      -0.000095
      3 O                    -0.757470      -0.000236
      4 C                    -0.459976       0.001790
      5 H                     0.256715       0.000828
      6 H                     0.241931       0.001806
      7 C                    -0.410539       0.025608
      8 H                     0.213448       0.002250
      9 H                     0.192788       0.002248
     10 C                     1.767140      -0.013003
     11 C                    -1.816988      -0.005223
     12 H                     0.358582      -0.001305
     13 H                     0.356071       0.001961
     14 H                     0.299596      -0.001042
     15 O                    -0.703165       0.001697
     16 O                    -0.602558       0.229933
     17 H                     0.407561      -0.001479
     18 O                    -0.817636       0.131871
     19 H                     0.378727       0.006547
     20 O                    -0.542405      -0.203421
     21 O                    -0.788311      -0.180630
  --------------------------------------------------------
  Sum of atomic charges =    -3.000000

                    Cartesian Multipole Moments
 -----------------------------------------------------------------
    Charge (ESU x 10^10)
               -14.4096
    Dipole Moment (Debye)
         X      -3.3599      Y     -10.7555      Z     -11.0379
       Tot      15.7735
    Quadrupole Moments (Debye-Ang)
        XX     -94.7518     XY       8.0349     YY    -113.4707
        XZ      29.0089     YZ      -8.6829     ZZ    -290.0368

             Standard Nuclear Orientation (Angstroms)
    I     Atom           X                Y                Z
 ----------------------------------------------------------------
    1      C       0.4896174721     0.9335027394    -3.3765187097
    2      O       0.2319549758     2.0550288498    -3.8974854120
    3      O       0.9926862780    -0.0498280642    -3.9790057245
    4      C       0.1303474574     0.7883555104    -1.8868453222
    5      H      -0.9574001929     0.8786815139    -1.8233963774
    6      H       0.5309285826     1.6602778494    -1.3656902427
    7      C       0.5994832749    -0.4930171712    -1.2117471238
    8      H       1.6820332063    -0.5924910727    -1.3098657795
    9      H       0.1528838638    -1.3597003005    -1.7046107669
   10      C       0.2721993619    -0.5966472771     0.2845547178
   11      C      -1.2331477220    -0.5619039403     0.5632123081
   12      H      -1.6593248309     0.4014835991     0.2814492020
   13      H      -1.4073602763    -0.7185189725     1.6268358923
   14      H      -1.7440598583    -1.3466325101     0.0019936662
   15      O       0.7928125618    -1.8612597208     0.7314955055
   16      O       0.9487150280     0.4258939837     0.9480585962
   17      H       0.9435919388    -1.6619975320     1.6801916735
   18      O       0.9616242818    -0.0510109086     2.6427506445
   19      H       0.0480574845     0.1595765717     3.2571987107
   20      O      -0.7735065588     0.2905588709     4.2326995319
   21      O      -1.0021363268     1.6996479798     4.3047250102
 ----------------------------------------------------------------

 Frequency:     -2293.15                  28.26                  32.66
 Force Cnst:      4.7450                 0.0058                 0.0081
 Red. Mass:       1.5315                12.2812                12.8960
 IR Intens:    76008.666                 11.959                  9.228
 Frequency:        48.04                  70.08                  82.52
 Force Cnst:      0.0072                 0.0147                 0.0334
 Red. Mass:       5.2871                 5.0867                 8.3236
 IR Intens:       23.956                 15.661                  8.981
 Frequency:        89.61                 121.39                 148.33
 Force Cnst:      0.0120                 0.0789                 0.0632
 Red. Mass:       2.5295                 9.0925                 4.8737
 IR Intens:        3.804                  3.828                  3.445
 Frequency:       202.57                 223.27                 272.06
 Force Cnst:      0.1261                 0.1996                 0.0493
 Red. Mass:       5.2142                 6.7948                 1.1307
 IR Intens:       51.395                  6.101                  2.750
 Frequency:       288.14                 327.71                 346.90
 Force Cnst:      0.3881                 0.2401                 0.2703
 Red. Mass:       7.9345                 3.7939                 3.8129
 IR Intens:       15.216                 28.981                 25.208
 Frequency:       428.28                 491.40                 502.58
 Force Cnst:      0.3778                 0.5322                 1.0550
 Red. Mass:       3.4960                 3.7410                 7.0893
 IR Intens:       18.778                 67.144                608.389
 Frequency:       524.23                 547.94                 589.47
 Force Cnst:      0.4977                 0.6619                 0.4251
 Red. Mass:       3.0736                 3.7418                 2.0765
 IR Intens:        9.515                 13.539                 12.509
 Frequency:       649.47                 666.34                 695.61
 Force Cnst:      0.3323                 0.8804                 1.1917
 Red. Mass:       1.3371                 3.3654                 4.1799
 IR Intens:      139.081                329.067                 47.064
 Frequency:       782.55                 801.62                 899.10
 Force Cnst:      0.7342                 1.0498                 2.2951
 Red. Mass:       2.0349                 2.7727                 4.8188
 IR Intens:       10.315                 15.151                257.693
 Frequency:       915.53                 934.74                 952.37
 Force Cnst:      1.4650                 2.6295                 1.1703
 Red. Mass:       2.9664                 5.1080                 2.1900
 IR Intens:      178.076                472.249                 19.275
 Frequency:       986.17                1069.15                1109.99
 Force Cnst:      1.2633                 1.6727                 1.3812
 Red. Mass:       2.2047                 2.4837                 1.9027
 IR Intens:       81.550                 39.295                 70.108
 Frequency:      1114.00                1151.17                1220.41
 Force Cnst:      1.7941                 1.3192                 1.0004
 Red. Mass:       2.4537                 1.6895                 1.1401
 IR Intens:      150.808                 42.134                 50.582
 Frequency:      1238.94                1268.36                1312.84
 Force Cnst:      1.5314                 1.3419                 1.1717
 Red. Mass:       1.6933                 1.4157                 1.1539
 IR Intens:      180.095                 11.262                 21.559
 Frequency:      1357.93                1376.63                1387.92
 Force Cnst:      1.9071                 2.0775                 1.4796
 Red. Mass:       1.7553                 1.8606                 1.3037
 IR Intens:      109.692                823.301                 29.190
 Frequency:      1392.19                1449.17                1468.40
 Force Cnst:      3.8967                 1.3873                 1.3790
 Red. Mass:       3.4124                 1.1212                 1.0855
 IR Intens:      180.746                 19.301                  1.902
 Frequency:      1472.57                1490.97                1538.47
 Force Cnst:      1.3822                 1.3805                 1.6197
 Red. Mass:       1.0818                 1.0541                 1.1614
 IR Intens:       37.307                 13.656                442.950
 Frequency:      1544.11                3034.92                3040.76
 Force Cnst:     12.2126                 5.6886                 5.7188
 Red. Mass:       8.6936                 1.0482                 1.0498
 IR Intens:     1173.670                  8.690                 34.932
 Frequency:      3044.16                3067.52                3088.85
 Force Cnst:      5.7849                 6.0849                 6.2033
 Red. Mass:       1.0595                 1.0976                 1.1035
 IR Intens:      127.092                 10.223                 87.305
 Frequency:      3103.79                3120.08                3466.68
 Force Cnst:      6.2478                 6.3232                 7.5411
 Red. Mass:       1.1008                 1.1024                 1.0650
 IR Intens:       73.759                 36.133                813.779

 STANDARD THERMODYNAMIC QUANTITIES AT   298.15 K  AND     1.00 ATM

   This Molecule has  1 Imaginary Frequencies
   Zero point vibrational energy:       89.461 kcal/mol

   Atom    1 Element C  Has Mass   12.00000
   Atom    2 Element O  Has Mass   15.99491
   Atom    3 Element O  Has Mass   15.99491
   Atom    4 Element C  Has Mass   12.00000
   Atom    5 Element H  Has Mass    1.00783
   Atom    6 Element H  Has Mass    1.00783
   Atom    7 Element C  Has Mass   12.00000
   Atom    8 Element H  Has Mass    1.00783
   Atom    9 Element H  Has Mass    1.00783
   Atom   10 Element C  Has Mass   12.00000
   Atom   11 Element C  Has Mass   12.00000
   Atom   12 Element H  Has Mass    1.00783
   Atom   13 Element H  Has Mass    1.00783
   Atom   14 Element H  Has Mass    1.00783
   Atom   15 Element O  Has Mass   15.99491
   Atom   16 Element O  Has Mass   15.99491
   Atom   17 Element H  Has Mass    1.00783
   Atom   18 Element O  Has Mass   15.99491
   Atom   19 Element H  Has Mass    1.00783
   Atom   20 Element O  Has Mass   15.99491
   Atom   21 Element O  Has Mass   15.99491
   Molecular Mass:   181.034840 amu
   Principal axes and moments of inertia in amu*Bohr^2:
                             1           2           3
    Eigenvalues --     1045.67080  5499.77184  6027.54396
          X              -0.12924    -0.35117     0.92735
          Y              -0.04842     0.93631     0.34782
          Z               0.99043    -0.00005     0.13802
   Rotational Symmetry Number is   1
   The Molecule is an Asymmetric Top
   Translational Enthalpy:        0.889 kcal/mol
   Rotational Enthalpy:           0.889 kcal/mol
   Vibrational Enthalpy:         96.526 kcal/mol
   gas constant (RT):             0.592 kcal/mol
   Translational Entropy:        41.487  cal/mol.K
   Rotational Entropy:           31.916  cal/mol.K
   Vibrational Entropy:          49.888  cal/mol.K

   Total Enthalpy:               98.896 kcal/mol
   Total Entropy:               123.291  cal/mol.K

 Total job time:  91467.80s(wall), 1190177.00s(cpu)
        *  Thank you very much for using Q-Chem.  Have a nice day.  *
