 Q-Chem 5.0, Q-Chem, Inc., Pleasanton, CA (2017)
 Q-Chem 5.0.2 for Intel X86 EM64T Linux

User input:
--------------------------------------------------------------
$molecule
-3 1
C       -0.3085324018    2.9751450296   -3.5906380872
O       -0.8865719458    2.6177461922   -4.6472830770
O        0.5790022472    3.8577937366   -3.4840288716
C       -0.7127125217    2.2220895752   -2.2777120244
H       -1.7461361190    1.8887057773   -2.3914857157
H       -0.6536773936    2.9337785307   -1.4528704974
C        0.1893373470    1.0720607559   -2.0419131611
H        1.1306331789    1.2089021543   -1.5265658697
H        0.0191232928    0.1289042194   -2.5449752742
C        1.1327625534    2.4137718080    1.3505753455
C       -0.3408224975    2.0582850848    1.5416199360
H       -0.9838749100    2.9219097331    1.3804635573
H       -0.5146739594    1.6468696545    2.5365892539
H       -0.6086244973    1.2857915527    0.8164805974
O        1.9808638440    1.5528538909    1.7352339261
O        1.4174434732    3.5130698179    0.8165201030
H        1.5074642261    0.0431856954    2.5079041894
O        1.3731902306   -0.8352553943    2.9358485418
H        0.4349168623   -0.8610383853    3.2545732544
O       -1.1817592058   -1.0126314048    3.8714195315
O       -1.4110549014    0.0969348008    4.5785957256
$end

$rem
jobtype               freq
method                b3lyp
basis                 def2-tzvpd
dft_d                 d3_bj
symmetry              off
sym_ignore            true
incdft                false
incfock               0
!scf_algorithm        diis_gdm
scf_convergence       8
thresh                14
unrestricted          true
!purecart             112
scf_guess             read
max_scf_cycles        1000
geom_opt_max_cycles   500
geom_opt_dmax         100
geom_opt_tol_gradient 10
solvent_method        pcm
ideriv                1
rpath_tol_displacement 1000
rpath_max_cycles      100
rpath_direction       1
$end

$pcm
theory              cosmo
method              iswig
Radii               bondi
vdwScale            1.20
hpoints             110
heavypoints         110
$end

$solvent
dielectric 78.400000
$end

--------------------------------------------------------------

   21    -723.1687138842      4.11E-09 Convergence criterion met
 Total energy in the final basis set = -723.16871388
   21    -723.1687129939      3.78E-09 Convergence criterion met
 Total energy in the final basis set = -723.16871299
   20    -723.1687130087      9.52E-09 Convergence criterion met
 Total energy in the final basis set = -723.16871301
   21    -723.1687130431      3.06E-09 Convergence criterion met
 Total energy in the final basis set = -723.16871304
   20    -723.1687130714      9.58E-09 Convergence criterion met
 Total energy in the final basis set = -723.16871307
   21    -723.1687126946      3.29E-09 Convergence criterion met
 Total energy in the final basis set = -723.16871269
   20    -723.1687130390      9.33E-09 Convergence criterion met
 Total energy in the final basis set = -723.16871304
   21    -723.1687135495      3.84E-09 Convergence criterion met
 Total energy in the final basis set = -723.16871366
   21    -723.1687136452      3.87E-09 Convergence criterion met
 Total energy in the final basis set = -723.16871365
   17    -723.1687138646      9.22E-09 Convergence criterion met
 Total energy in the final basis set = -723.16871386
   21    -723.1687138361      3.88E-09 Convergence criterion met
 Total energy in the final basis set = -723.16871384
   21    -723.1687133749      4.06E-09 Convergence criterion met
 Total energy in the final basis set = -723.16871337
   21    -723.1687133163      3.44E-09 Convergence criterion met
 Total energy in the final basis set = -723.16871332
   21    -723.1687136748      3.77E-09 Convergence criterion met
 Total energy in the final basis set = -723.16871367
   21    -723.1687136429      3.67E-09 Convergence criterion met
 Total energy in the final basis set = -723.16871364

                    Orbital Energies (a.u.)
 --------------------------------------------------------------

 Alpha MOs
 -- Occupied --
-19.110 -19.107 -19.079 -19.064 -19.062 -19.062 -19.061 -10.250
-10.250 -10.167 -10.156 -10.144  -1.040  -1.019  -1.019  -0.956
 -0.930  -0.929  -0.755  -0.704  -0.687  -0.610  -0.504  -0.491
 -0.481  -0.453  -0.428  -0.422  -0.421  -0.420  -0.414  -0.402
 -0.388  -0.378  -0.359  -0.355  -0.349  -0.346  -0.336  -0.317
 -0.281  -0.258  -0.254  -0.253  -0.243  -0.232  -0.232  -0.186
 -0.162

 Beta MOs
 -- Occupied --
-19.124 -19.122 -19.079 -19.064 -19.061 -19.061 -19.061 -10.250
-10.248 -10.156 -10.154 -10.144  -1.070  -1.019  -1.017  -0.956
 -0.929  -0.929  -0.740  -0.731  -0.703  -0.587  -0.504  -0.485
 -0.481  -0.448  -0.425  -0.422  -0.421  -0.419  -0.409  -0.404
 -0.401  -0.399  -0.383  -0.363  -0.351  -0.348  -0.343  -0.340
 -0.282  -0.254  -0.252  -0.243  -0.241  -0.232  -0.230  -0.215
 -0.177

          Ground-State Mulliken Net Atomic Charges

     Atom                 Charge (a.u.)    Spin (a.u.)
  --------------------------------------------------------
      1 C                     0.360023       0.044576
      2 O                    -0.751621       0.022995
      3 O                    -0.752086       0.024052
      4 C                     0.161150      -0.128287
      5 H                     0.246186       0.030822
      6 H                     0.079959       0.025069
      7 C                    -1.005575       1.025863
      8 H                     0.336244      -0.035212
      9 H                     0.316549      -0.012823
     10 C                     0.683949      -0.001777
     11 C                    -0.887512       0.014403
     12 H                     0.284925      -0.001443
     13 H                     0.333956      -0.005272
     14 H                     0.193546      -0.004622
     15 O                    -0.849533       0.000652
     16 O                    -0.771114       0.000612
     17 H                     0.404014      -0.001327
     18 O                    -0.789016      -0.002802
     19 H                     0.398582       0.003108
     20 O                    -0.524667      -0.473657
     21 O                    -0.467958      -0.524930
  --------------------------------------------------------
  Sum of atomic charges =    -3.000000

                    Cartesian Multipole Moments
 -----------------------------------------------------------------
    Charge (ESU x 10^10)
               -14.4096
    Dipole Moment (Debye)
         X      -6.0005      Y     -23.5513      Z      -5.9083
       Tot      25.0116
    Quadrupole Moments (Debye-Ang)
        XX    -114.1479     XY     -23.5507     YY    -178.5873
        XZ      -0.1641     YZ      68.5341     ZZ    -265.3461

             Standard Nuclear Orientation (Angstroms)
    I     Atom           X                Y                Z
 ----------------------------------------------------------------
    1      C      -0.3085324018     2.9751450296    -3.5906380872
    2      O      -0.8865719458     2.6177461922    -4.6472830770
    3      O       0.5790022472     3.8577937366    -3.4840288716
    4      C      -0.7127125217     2.2220895752    -2.2777120244
    5      H      -1.7461361190     1.8887057773    -2.3914857157
    6      H      -0.6536773936     2.9337785307    -1.4528704974
    7      C       0.1893373470     1.0720607559    -2.0419131611
    8      H       1.1306331789     1.2089021543    -1.5265658697
    9      H       0.0191232928     0.1289042194    -2.5449752742
   10      C       1.1327625534     2.4137718080     1.3505753455
   11      C      -0.3408224975     2.0582850848     1.5416199360
   12      H      -0.9838749100     2.9219097331     1.3804635573
   13      H      -0.5146739594     1.6468696545     2.5365892539
   14      H      -0.6086244973     1.2857915527     0.8164805974
   15      O       1.9808638440     1.5528538909     1.7352339261
   16      O       1.4174434732     3.5130698179     0.8165201030
   17      H       1.5074642261     0.0431856954     2.5079041894
   18      O       1.3731902306    -0.8352553943     2.9358485418
   19      H       0.4349168623    -0.8610383853     3.2545732544
   20      O      -1.1817592058    -1.0126314048     3.8714195315
   21      O      -1.4110549014     0.0969348008     4.5785957256
 ----------------------------------------------------------------

 Frequency:        10.77                  19.09                  31.35
 Force Cnst:      0.0004                 0.0022                 0.0035
 Red. Mass:       6.3735                10.1976                 5.9821
 IR Intens:       10.874                  1.538                 13.017
 Frequency:        33.56                  36.68                  49.38
 Force Cnst:      0.0039                 0.0060                 0.0111
 Red. Mass:       5.8686                 7.6256                 7.7061
 IR Intens:        7.369                  0.649                  3.567
 Frequency:        53.83                  63.52                  71.51
 Force Cnst:      0.0116                 0.0110                 0.0151
 Red. Mass:       6.7654                 4.6450                 5.0054
 IR Intens:        0.230                  5.390                  2.863
 Frequency:        79.32                  88.91                 104.33
 Force Cnst:      0.0159                 0.0251                 0.0754
 Red. Mass:       4.2866                 5.3915                11.7507
 IR Intens:        8.036                  8.802                  4.668
 Frequency:       133.13                 156.71                 190.60
 Force Cnst:      0.0860                 0.0154                 0.0223
 Red. Mass:       8.2317                 1.0633                 1.0424
 IR Intens:        3.387                  2.004                  1.134
 Frequency:       195.33                 242.26                 242.57
 Force Cnst:      0.1736                 0.1072                 0.2897
 Red. Mass:       7.7235                 3.0992                 8.3578
 IR Intens:       30.706                 15.155                 42.349
 Frequency:       441.83                 461.18                 524.68
 Force Cnst:      0.3601                 0.3853                 0.2506
 Red. Mass:       3.1312                 3.0746                 1.5448
 IR Intens:        2.446                  1.962                 88.807
 Frequency:       617.34                 621.16                 646.56
 Force Cnst:      0.5902                 1.0845                 1.1254
 Red. Mass:       2.6283                 4.7704                 4.5691
 IR Intens:       13.017                 62.161                 16.616
 Frequency:       700.88                 755.16                 792.42
 Force Cnst:      0.3079                 0.3525                 1.8347
 Red. Mass:       1.0640                 1.0490                 4.9592
 IR Intens:      191.278                168.944                 39.949
 Frequency:       793.46                 803.90                 863.38
 Force Cnst:      0.4701                 0.3911                 4.2904
 Red. Mass:       1.2673                 1.0272                 9.7688
 IR Intens:        3.989                 56.074                 72.499
 Frequency:       911.02                1030.03                1057.44
 Force Cnst:      3.4524                 0.9023                 1.2595
 Red. Mass:       7.0602                 1.4435                 1.9117
 IR Intens:       34.754                 29.094                 12.866
 Frequency:      1065.47                1067.17                1200.13
 Force Cnst:      1.0435                 1.9600                13.5620
 Red. Mass:       1.5601                 2.9210                15.9814
 IR Intens:       21.776                 23.971                  0.941
 Frequency:      1236.98                1252.31                1339.33
 Force Cnst:      1.2098                 1.1128                 7.6997
 Red. Mass:       1.3419                 1.2043                 7.2852
 IR Intens:      122.160                 26.942                471.024
 Frequency:      1360.20                1396.31                1454.64
 Force Cnst:      1.7719                 3.8680                 1.4031
 Red. Mass:       1.6255                 3.3672                 1.1255
 IR Intens:       60.700                318.521                173.473
 Frequency:      1455.81                1464.55                1475.71
 Force Cnst:      1.4298                 1.4652                 1.3755
 Red. Mass:       1.1451                 1.1594                 1.0720
 IR Intens:        1.160                  6.781                 27.735
 Frequency:      1553.04                1565.33                1640.41
 Force Cnst:      8.7900                14.1871                 1.6893
 Red. Mass:       6.1855                 9.8272                 1.0655
 IR Intens:     1171.093               1250.173                 74.389
 Frequency:      3036.03                3036.93                3089.34
 Force Cnst:      5.7005                 5.6649                 6.2143
 Red. Mass:       1.0497                 1.0425                 1.1051
 IR Intens:       15.574                 37.598                 33.792
 Frequency:      3099.08                3125.04                3137.77
 Force Cnst:      6.2184                 6.3543                 6.0930
 Red. Mass:       1.0989                 1.1044                 1.0504
 IR Intens:       13.581                 36.515                 27.411
 Frequency:      3220.95                3238.39                3333.46
 Force Cnst:      6.5212                 6.9108                 7.0349
 Red. Mass:       1.0669                 1.1185                 1.0745
 IR Intens:     1465.662                 21.353               1489.251

 STANDARD THERMODYNAMIC QUANTITIES AT   298.15 K  AND     1.00 ATM

   This Molecule has  0 Imaginary Frequencies
   Zero point vibrational energy:       88.158 kcal/mol

   Atom    1 Element C  Has Mass   12.00000
   Atom    2 Element O  Has Mass   15.99491
   Atom    3 Element O  Has Mass   15.99491
   Atom    4 Element C  Has Mass   12.00000
   Atom    5 Element H  Has Mass    1.00783
   Atom    6 Element H  Has Mass    1.00783
   Atom    7 Element C  Has Mass   12.00000
   Atom    8 Element H  Has Mass    1.00783
   Atom    9 Element H  Has Mass    1.00783
   Atom   10 Element C  Has Mass   12.00000
   Atom   11 Element C  Has Mass   12.00000
   Atom   12 Element H  Has Mass    1.00783
   Atom   13 Element H  Has Mass    1.00783
   Atom   14 Element H  Has Mass    1.00783
   Atom   15 Element O  Has Mass   15.99491
   Atom   16 Element O  Has Mass   15.99491
   Atom   17 Element H  Has Mass    1.00783
   Atom   18 Element O  Has Mass   15.99491
   Atom   19 Element H  Has Mass    1.00783
   Atom   20 Element O  Has Mass   15.99491
   Atom   21 Element O  Has Mass   15.99491
   Molecular Mass:   181.034840 amu
   Principal axes and moments of inertia in amu*Bohr^2:
                             1           2           3
    Eigenvalues --     1502.39730  7337.67494  7895.77422
          X               0.00365     0.77534    -0.63154
          Y              -0.38610     0.58366     0.71433
          Z               0.92245     0.24123     0.30148
   Rotational Symmetry Number is   1
   The Molecule is an Asymmetric Top
   Translational Enthalpy:        0.889 kcal/mol
   Rotational Enthalpy:           0.889 kcal/mol
   Vibrational Enthalpy:         97.782 kcal/mol
   gas constant (RT):             0.592 kcal/mol
   Translational Entropy:        41.487  cal/mol.K
   Rotational Entropy:           32.831  cal/mol.K
   Vibrational Entropy:          79.187  cal/mol.K

   Total Enthalpy:              100.152 kcal/mol
   Total Entropy:               153.505  cal/mol.K

 Total job time:  110970.46s(wall), 779940.81s(cpu)
        *  Thank you very much for using Q-Chem.  Have a nice day.  *
