 Q-Chem 5.0, Q-Chem, Inc., Pleasanton, CA (2017)
 Q-Chem 5.0.2 for Intel X86 EM64T Linux

User input:
--------------------------------------------------------------
$molecule
-2 1
C       -0.4007256044    0.8054896901    0.1306443147
C        0.6804837895    0.8300147908    1.2258859976
O        0.6299844739   -0.0504814555    2.1220845879
O        1.5242735978    1.7652564690    1.1683403321
C       -0.8547292971   -0.5489632868   -0.2823993520
H       -0.0391321555    1.3691361696   -0.7367547695
H       -1.2423132277    1.3963491180    0.5348128136
H       -1.5335668294   -0.6467537143   -1.1230108122
H       -0.8036668943   -1.3674958415    0.4251830544
O        1.0108542214   -1.1532187753   -1.4930506926
O        1.0285379257   -2.3993331642   -1.9717354741
$end

$rem
jobtype               freq
method                wb97x-v
basis                 def2-tzvpd
symmetry              off
sym_ignore            true
unrestricted          true
incdft                false
incfock               0
scf_algorithm         diis_gdm
scf_convergence       8
thresh                14
!purecart             112
max_scf_cycles        1000
geom_opt_max_cycles   500
geom_opt_dmax         100
geom_opt_tol_gradient 10
solvent_method        pcm
ideriv                1
rpath_tol_displacement 1000
rpath_max_cycles      100
rpath_direction       1
!scf_guess            read
scf_guess             read
$end

$pcm
theory              cosmo
method              iswig
Radii               bondi
vdwScale            1.20
hpoints             110
heavypoints         110
$end

$solvent
dielectric 78.400000
$end

--------------------------------------------------------------

   28    -417.7528532583      3.81E-09 Convergence criterion met
 Total energy in the final basis set = -417.75285326
   28    -417.7528524391      4.12E-09 Convergence criterion met
 Total energy in the final basis set = -417.75285244
   28    -417.7528523945      3.58E-09 Convergence criterion met
 Total energy in the final basis set = -417.75285239
   27    -417.7528523401      1.00E-08 Convergence criterion met
 Total energy in the final basis set = -417.75285234
   28    -417.7528522969      3.80E-09 Convergence criterion met
 Total energy in the final basis set = -417.75285230
   28    -417.7528522924      3.96E-09 Convergence criterion met
 Total energy in the final basis set = -417.75285229
   28    -417.7528523670      3.89E-09 Convergence criterion met
 Total energy in the final basis set = -417.75285237
   28    -417.7528523569      3.66E-09 Convergence criterion met
 Total energy in the final basis set = -417.75285324
   28    -417.7528531203      3.41E-09 Convergence criterion met
 Total energy in the final basis set = -417.75285312
   28    -417.7528531926      2.53E-09 Convergence criterion met
 Total energy in the final basis set = -417.75285319
   27    -417.7528532944      9.76E-09 Convergence criterion met
 Total energy in the final basis set = -417.75285329
   28    -417.7528524928      3.81E-09 Convergence criterion met
 Total energy in the final basis set = -417.75285249
   28    -417.7528527226      3.70E-09 Convergence criterion met
 Total energy in the final basis set = -417.75285272
   28    -417.7528532564      3.80E-09 Convergence criterion met
 Total energy in the final basis set = -417.75285326
   27    -417.7528530611      8.88E-09 Convergence criterion met
 Total energy in the final basis set = -417.75285306

                    Orbital Energies (a.u.)
 --------------------------------------------------------------

 Alpha MOs
 -- Occupied --
-19.188 -19.163 -19.138 -19.138 -10.339 -10.251 -10.248  -1.150
 -1.141  -1.047  -0.879  -0.792  -0.728  -0.602  -0.549  -0.543
 -0.518  -0.489  -0.474  -0.458  -0.452  -0.445  -0.415  -0.346
 -0.336  -0.329  -0.254  -0.244

 Beta MOs
 -- Occupied --
-19.199 -19.172 -19.138 -19.137 -10.339 -10.248 -10.241  -1.175
 -1.141  -1.047  -0.867  -0.827  -0.706  -0.599  -0.546  -0.536
 -0.517  -0.492  -0.486  -0.480  -0.459  -0.450  -0.444  -0.346
 -0.335  -0.328  -0.293  -0.259

          Ground-State Mulliken Net Atomic Charges

     Atom                 Charge (a.u.)    Spin (a.u.)
  --------------------------------------------------------
      1 C                     0.232348      -0.112398
      2 C                     0.168753       0.011656
      3 O                    -0.701841       0.000120
      4 O                    -0.719808       0.004145
      5 C                    -0.751892       0.868093
      6 H                     0.133989       0.020695
      7 H                     0.179839       0.070846
      8 H                     0.219593      -0.000230
      9 H                     0.245204       0.003223
     10 O                    -0.332147      -0.480940
     11 O                    -0.674037      -0.385209
  --------------------------------------------------------
  Sum of atomic charges =    -2.000000

                    Cartesian Multipole Moments
 -----------------------------------------------------------------
    Charge (ESU x 10^10)
                -9.6064
    Dipole Moment (Debye)
         X     -11.4826      Y       5.0771      Z      -0.5115
       Tot      12.5654
    Quadrupole Moments (Debye-Ang)
        XX     -61.1819     XY       0.4180     YY     -76.1221
        XZ      -1.0387     YZ     -22.0336     ZZ     -80.7235

             Standard Nuclear Orientation (Angstroms)
    I     Atom           X                Y                Z
 ----------------------------------------------------------------
    1      C      -0.4007256044     0.8054896901     0.1306443147
    2      C       0.6804837895     0.8300147908     1.2258859976
    3      O       0.6299844739    -0.0504814555     2.1220845879
    4      O       1.5242735978     1.7652564690     1.1683403321
    5      C      -0.8547292971    -0.5489632868    -0.2823993520
    6      H      -0.0391321555     1.3691361696    -0.7367547695
    7      H      -1.2423132277     1.3963491180     0.5348128136
    8      H      -1.5335668294    -0.6467537143    -1.1230108122
    9      H      -0.8036668943    -1.3674958415     0.4251830544
   10      O       1.0108542214    -1.1532187753    -1.4930506926
   11      O       1.0285379257    -2.3993331642    -1.9717354741
 ----------------------------------------------------------------

 Frequency:      -283.98                  25.42                  43.26
 Force Cnst:      0.4215                 0.0035                 0.0133
 Red. Mass:       8.8708                 9.1939                12.0571
 IR Intens:       54.287                  5.938                  2.694
 Frequency:        76.61                 105.98                 225.20
 Force Cnst:      0.0360                 0.0189                 0.1677
 Red. Mass:      10.4231                 2.8600                 5.6118
 IR Intens:        0.611                  6.573                 26.273
 Frequency:       280.18                 418.23                 479.01
 Force Cnst:      0.1718                 0.1116                 0.4873
 Red. Mass:       3.7156                 1.0829                 3.6048
 IR Intens:       25.951                  0.662                 13.867
 Frequency:       580.16                 611.88                 680.89
 Force Cnst:      0.3387                 0.4024                 0.6959
 Red. Mass:       1.7077                 1.8241                 2.5475
 IR Intens:       34.964                 94.171                 22.465
 Frequency:       863.78                 935.17                1018.83
 Force Cnst:      1.6361                 1.3973                 0.9904
 Red. Mass:       3.7218                 2.7118                 1.6194
 IR Intens:       40.636                  3.628                 14.048
 Frequency:      1111.62                1163.67                1186.90
 Force Cnst:      1.6411                 9.1035                 1.0427
 Red. Mass:       2.2540                11.4102                 1.2563
 IR Intens:       12.319                287.645                  5.643
 Frequency:      1325.95                1425.03                1435.18
 Force Cnst:      1.8431                 1.8248                 1.4945
 Red. Mass:       1.7793                 1.5252                 1.2315
 IR Intens:       58.575                116.289                 29.268
 Frequency:      1449.09                1585.22                2969.26
 Force Cnst:      3.2169                14.8891                 5.5720
 Red. Mass:       2.6002                10.0564                 1.0727
 IR Intens:      259.213               1263.544                 65.038
 Frequency:      3071.88                3158.82                3262.85
 Force Cnst:      6.0394                 6.1850                 7.0106
 Red. Mass:       1.0863                 1.0521                 1.1177
 IR Intens:       45.575                 43.483                 22.612

 STANDARD THERMODYNAMIC QUANTITIES AT   298.15 K  AND     1.00 ATM

   This Molecule has  1 Imaginary Frequencies
   Zero point vibrational energy:       42.158 kcal/mol

   Atom    1 Element C  Has Mass   12.00000
   Atom    2 Element C  Has Mass   12.00000
   Atom    3 Element O  Has Mass   15.99491
   Atom    4 Element O  Has Mass   15.99491
   Atom    5 Element C  Has Mass   12.00000
   Atom    6 Element H  Has Mass    1.00783
   Atom    7 Element H  Has Mass    1.00783
   Atom    8 Element H  Has Mass    1.00783
   Atom    9 Element H  Has Mass    1.00783
   Atom   10 Element O  Has Mass   15.99491
   Atom   11 Element O  Has Mass   15.99491
   Molecular Mass:   104.010960 amu
   Principal axes and moments of inertia in amu*Bohr^2:
                             1           2           3
    Eigenvalues --      409.92463  1425.23524  1492.91306
          X               0.00754     0.99977    -0.02000
          Y               0.67653     0.00962     0.73635
          Z               0.73638    -0.01908    -0.67630
   Rotational Symmetry Number is   1
   The Molecule is an Asymmetric Top
   Translational Enthalpy:        0.889 kcal/mol
   Rotational Enthalpy:           0.889 kcal/mol
   Vibrational Enthalpy:         45.561 kcal/mol
   gas constant (RT):             0.592 kcal/mol
   Translational Entropy:        39.835  cal/mol.K
   Rotational Entropy:           28.258  cal/mol.K
   Vibrational Entropy:          25.483  cal/mol.K

   Total Enthalpy:               47.931 kcal/mol
   Total Entropy:                93.575  cal/mol.K

 Total job time:  35961.34s(wall), 143553.90s(cpu)
        *  Thank you very much for using Q-Chem.  Have a nice day.  *
