 Q-Chem 5.0, Q-Chem, Inc., Pleasanton, CA (2017)
 Q-Chem 5.0.2 for Intel X86 EM64T Linux

User input:
--------------------------------------------------------------
$molecule
-2 1
C       -0.4145495416   -1.8216165947    0.7743300517
C       -1.5717537952   -2.8305026394    0.7023353861
O       -1.3657228904   -3.9465585792    1.2483796539
O       -2.6284284471   -2.4854512509    0.1144737446
C       -0.7024203578   -0.4869274322    0.1181404703
H        0.4645236757   -2.2850044451    0.3124175116
H       -0.1659257874   -1.6712945434    1.8310915806
O        0.4624326554    0.3289425804    0.2713984245
H       -1.5623951677    0.0025620908    0.5827031853
H       -0.9173283186   -0.6069440670   -0.9486953398
C        0.3925694485    1.5779836538   -0.2874018957
C        1.6282782235    2.3685015968    0.0655864346
H        1.5322833662    2.7059045512    1.1044355165
H        1.7007535708    3.2397038999   -0.5842985117
H        2.5287227881    1.7616291120   -0.0271369878
O       -0.7000668630    2.1093111605   -0.5101233970
O        1.0887732243    1.0912620432   -2.1773382761
H        0.2302542164    0.9484988635   -2.5902975520
$end

$rem
jobtype               freq
method                wb97x-v
basis                 def2-tzvpd
symmetry              off
sym_ignore            true
incdft                false
incfock               0
!scf_algorithm        diis_gdm
scf_convergence       8
thresh                14
!purecart             112
max_scf_cycles        1000
geom_opt_max_cycles   500
geom_opt_dmax         100
geom_opt_tol_gradient 10
solvent_method        pcm
ideriv                1
rpath_tol_displacement 1000
rpath_max_cycles      100
rpath_direction       1
!scf_guess            read
scf_guess             read
$end

$pcm
theory              cosmo
method              iswig
Radii               bondi
vdwScale            1.20
hpoints             110
heavypoints         110
$end

$solvent
dielectric 78.400000
$end

--------------------------------------------------------------

   17    -571.8022927020      3.49E-09 Convergence criterion met
 Total energy in the final basis set = -571.80229270
   15    -571.8022917919      5.96E-09 Convergence criterion met
 Total energy in the final basis set = -571.80229179
   14    -571.8022917295      7.04E-09 Convergence criterion met
 Total energy in the final basis set = -571.80229173
   14    -571.8022917537      9.20E-09 Convergence criterion met
 Total energy in the final basis set = -571.80229175
   14    -571.8022918107      6.49E-09 Convergence criterion met
 Total energy in the final basis set = -571.80229181
   14    -571.8022916454      9.71E-09 Convergence criterion met
 Total energy in the final basis set = -571.80229165
   14    -571.8022917515      6.73E-09 Convergence criterion met
 Total energy in the final basis set = -571.80229175
   14    -571.8022916060      7.98E-09 Convergence criterion met
 Total energy in the final basis set = -571.80229253
   15    -571.8022925044      4.40E-09 Convergence criterion met
 Total energy in the final basis set = -571.80229250
   16    -571.8022918251      1.20E-09 Convergence criterion met
 Total energy in the final basis set = -571.80229183
   15    -571.8022920611      6.19E-09 Convergence criterion met
 Total energy in the final basis set = -571.80229206
   14    -571.8022927729      6.30E-09 Convergence criterion met
 Total energy in the final basis set = -571.80229277
   17    -571.8022925856      5.55E-10 Convergence criterion met
 Total energy in the final basis set = -571.80229259
   17    -571.8022925226      4.96E-10 Convergence criterion met
 Total energy in the final basis set = -571.80229252
   15    -571.8022925015      9.87E-09 Convergence criterion met
 Total energy in the final basis set = -571.80229250

                    Orbital Energies (a.u.)
 --------------------------------------------------------------

 Alpha MOs
 -- Occupied --
-19.218 -19.152 -19.142 -19.139 -19.103 -10.383 -10.344 -10.298
-10.250 -10.246  -1.197  -1.145  -1.102  -1.051  -0.985  -0.894
 -0.844  -0.751  -0.664  -0.606  -0.593  -0.574  -0.559  -0.546
 -0.527  -0.515  -0.506  -0.488  -0.469  -0.461  -0.451  -0.432
 -0.430  -0.380  -0.355  -0.348  -0.336  -0.332  -0.319  -0.308

          Ground-State Mulliken Net Atomic Charges

     Atom                 Charge (a.u.)
  ----------------------------------------
      1 C                    -0.055711
      2 C                     0.034194
      3 O                    -0.707920
      4 O                    -0.691203
      5 C                    -0.221025
      6 H                     0.238175
      7 H                     0.240594
      8 O                    -0.204187
      9 H                     0.181841
     10 H                     0.178604
     11 C                     0.666502
     12 C                    -0.930697
     13 H                     0.250482
     14 H                     0.212952
     15 H                     0.196442
     16 O                    -0.643981
     17 O                    -0.956719
     18 H                     0.211658
  ----------------------------------------
  Sum of atomic charges =    -2.000000

                    Cartesian Multipole Moments
 -----------------------------------------------------------------
    Charge (ESU x 10^10)
                -9.6064
    Dipole Moment (Debye)
         X       7.3703      Y       8.9057      Z       4.9383
       Tot      12.5706
    Quadrupole Moments (Debye-Ang)
        XX     -98.5082     XY     -31.5060     YY    -138.5228
        XZ      14.7715     YZ      25.8744     ZZ     -85.7244

             Standard Nuclear Orientation (Angstroms)
    I     Atom           X                Y                Z
 ----------------------------------------------------------------
    1      C      -0.4145495416    -1.8216165947     0.7743300517
    2      C      -1.5717537952    -2.8305026394     0.7023353861
    3      O      -1.3657228904    -3.9465585792     1.2483796539
    4      O      -2.6284284471    -2.4854512509     0.1144737446
    5      C      -0.7024203578    -0.4869274322     0.1181404703
    6      H       0.4645236757    -2.2850044451     0.3124175116
    7      H      -0.1659257874    -1.6712945434     1.8310915806
    8      O       0.4624326554     0.3289425804     0.2713984245
    9      H      -1.5623951677     0.0025620908     0.5827031853
   10      H      -0.9173283186    -0.6069440670    -0.9486953398
   11      C       0.3925694485     1.5779836538    -0.2874018957
   12      C       1.6282782235     2.3685015968     0.0655864346
   13      H       1.5322833662     2.7059045512     1.1044355165
   14      H       1.7007535708     3.2397038999    -0.5842985117
   15      H       2.5287227881     1.7616291120    -0.0271369878
   16      O      -0.7000668630     2.1093111605    -0.5101233970
   17      O       1.0887732243     1.0912620432    -2.1773382761
   18      H       0.2302542164     0.9484988635    -2.5902975520
 ----------------------------------------------------------------

 Frequency:      -306.17                  40.29                  49.89
 Force Cnst:      0.5873                 0.0113                 0.0088
 Red. Mass:      10.6336                11.7793                 5.9910
 IR Intens:      682.175                  7.922                  9.189
 Frequency:        78.00                 102.68                 142.72
 Force Cnst:      0.0074                 0.0369                 0.0406
 Red. Mass:       2.0507                 5.9390                 3.3834
 IR Intens:        6.301                  7.285                 12.978
 Frequency:       148.59                 219.83                 233.54
 Force Cnst:      0.0150                 0.0306                 0.1014
 Red. Mass:       1.1562                 1.0743                 3.1555
 IR Intens:      116.218                  5.317                 40.169
 Frequency:       254.66                 276.23                 312.94
 Force Cnst:      0.1892                 0.2257                 0.4488
 Red. Mass:       4.9522                 5.0197                 7.7778
 IR Intens:       30.626                 32.073                  1.752
 Frequency:       444.43                 507.33                 532.46
 Force Cnst:      0.4025                 0.6727                 0.3752
 Red. Mass:       3.4589                 4.4363                 2.2462
 IR Intens:       12.647                 53.744                215.083
 Frequency:       596.44                 635.66                 653.63
 Force Cnst:      0.4076                 0.4702                 0.7440
 Red. Mass:       1.9449                 1.9751                 2.9556
 IR Intens:        8.094                  6.068                 23.913
 Frequency:       692.24                 819.10                 881.66
 Force Cnst:      1.7477                 0.5766                 3.2411
 Red. Mass:       6.1902                 1.4586                 7.0768
 IR Intens:       44.070                  6.532                 96.161
 Frequency:       950.96                 997.12                1036.09
 Force Cnst:      2.0811                 1.1204                 0.9621
 Red. Mass:       3.9059                 1.9127                 1.5211
 IR Intens:        9.581                 41.769                104.420
 Frequency:      1087.46                1094.35                1122.10
 Force Cnst:      1.3759                 3.2954                 1.9919
 Red. Mass:       1.9747                 4.6703                 2.6851
 IR Intens:       15.462                192.268                 17.553
 Frequency:      1222.91                1227.37                1287.04
 Force Cnst:      1.0788                 2.9394                 1.4946
 Red. Mass:       1.2243                 3.3118                 1.5314
 IR Intens:       21.265                636.306                 15.375
 Frequency:      1299.92                1390.71                1411.19
 Force Cnst:      1.0954                 1.5512                 1.9620
 Red. Mass:       1.1002                 1.3613                 1.6721
 IR Intens:        0.855                 46.472                 90.001
 Frequency:      1434.69                1457.30                1460.71
 Force Cnst:      5.0522                 1.3675                 1.6018
 Red. Mass:       4.1659                 1.0929                 1.2741
 IR Intens:      310.188                 15.199                 22.441
 Frequency:      1467.21                1502.07                1589.91
 Force Cnst:      1.3251                 1.4571                15.5835
 Red. Mass:       1.0447                 1.0961                10.4633
 IR Intens:        3.081                 23.861               1233.216
 Frequency:      1632.08                3060.35                3061.03
 Force Cnst:     15.9575                 5.7983                 5.8262
 Red. Mass:      10.1679                 1.0508                 1.0554
 IR Intens:      756.265                 18.468                 31.428
 Frequency:      3069.36                3097.52                3123.23
 Force Cnst:      5.8745                 6.2271                 6.3596
 Red. Mass:       1.0583                 1.1016                 1.1065
 IR Intens:       60.944                  4.507                 76.785
 Frequency:      3144.87                3182.98                3844.36
 Force Cnst:      6.3578                 6.5980                 9.2909
 Red. Mass:       1.0911                 1.1053                 1.0670
 IR Intens:       25.942                 25.286                  0.229

 STANDARD THERMODYNAMIC QUANTITIES AT   298.15 K  AND     1.00 ATM

   This Molecule has  1 Imaginary Frequencies
   Zero point vibrational energy:       82.740 kcal/mol

   Atom    1 Element C  Has Mass   12.00000
   Atom    2 Element C  Has Mass   12.00000
   Atom    3 Element O  Has Mass   15.99491
   Atom    4 Element O  Has Mass   15.99491
   Atom    5 Element C  Has Mass   12.00000
   Atom    6 Element H  Has Mass    1.00783
   Atom    7 Element H  Has Mass    1.00783
   Atom    8 Element O  Has Mass   15.99491
   Atom    9 Element H  Has Mass    1.00783
   Atom   10 Element H  Has Mass    1.00783
   Atom   11 Element C  Has Mass   12.00000
   Atom   12 Element C  Has Mass   12.00000
   Atom   13 Element H  Has Mass    1.00783
   Atom   14 Element H  Has Mass    1.00783
   Atom   15 Element H  Has Mass    1.00783
   Atom   16 Element O  Has Mass   15.99491
   Atom   17 Element O  Has Mass   15.99491
   Atom   18 Element H  Has Mass    1.00783
   Molecular Mass:   148.037190 amu
   Principal axes and moments of inertia in amu*Bohr^2:
                             1           2           3
    Eigenvalues --      585.51736  3434.01953  3519.13713
          X               0.43111     0.77766    -0.45759
          Y               0.86422    -0.21011     0.45714
          Z              -0.25936     0.59254     0.76265
   Rotational Symmetry Number is   1
   The Molecule is an Asymmetric Top
   Translational Enthalpy:        0.889 kcal/mol
   Rotational Enthalpy:           0.889 kcal/mol
   Vibrational Enthalpy:         88.097 kcal/mol
   gas constant (RT):             0.592 kcal/mol
   Translational Entropy:        40.887  cal/mol.K
   Rotational Entropy:           30.337  cal/mol.K
   Vibrational Entropy:          35.913  cal/mol.K

   Total Enthalpy:               90.467 kcal/mol
   Total Entropy:               107.138  cal/mol.K

 Total job time:  113490.75s(wall), 438546.43s(cpu)
        *  Thank you very much for using Q-Chem.  Have a nice day.  *
