 Q-Chem 5.0, Q-Chem, Inc., Pleasanton, CA (2017)
 Q-Chem 5.0.2 for Intel X86 EM64T Linux

User input:
--------------------------------------------------------------
$molecule
-3 1
C        0.0419821171    0.8003944009   -1.8234001406
C        0.3426798993    0.9748480439   -3.3211962284
O        0.0818877966    2.1103022940   -3.8096214806
O        0.8059829744    0.0010116675   -3.9685743309
C        0.5482132115   -0.4902201761   -1.1885252473
H       -1.0473033432    0.8794160415   -1.7208851867
H        0.4540161237    1.6720837245   -1.3044971239
C        0.2902628250   -0.6758488962    0.3291518812
H        1.6310711312   -0.5772805451   -1.3326156524
H        0.0901414571   -1.3521610599   -1.6881704982
C       -1.2160013599   -0.6114876526    0.6474536995
H       -1.6607038716    0.3481123830    0.3635379005
H       -1.3562403740   -0.7540880064    1.7227448493
H       -1.7454893413   -1.4120830982    0.1182315786
O        0.8415423414   -1.8326495073    0.7844409701
O        0.9353452673    0.4754292411    0.9302377390
O        1.1964523849   -0.0951238611    2.6224434994
H        1.1653693858   -1.0068507851    2.2095782615
O       -0.7883892504    0.4547970681    4.1640133589
H       -0.0305211272    0.2150959747    3.5198819388
O       -1.0940106710    1.7664146920    3.8659609795
$end

$rem
jobtype               force
method                wb97x-v
basis                 def2-tzvpd
symmetry              off
sym_ignore            true
incdft                false
incfock               0
!scf_algorithm        diis_gdm
scf_convergence       8
thresh                14
unrestricted          true
!purecart             112
max_scf_cycles        1000
geom_opt_max_cycles   500
geom_opt_dmax         100
geom_opt_tol_gradient 10
solvent_method        pcm
!ideriv               1
rpath_tol_displacement 1000
rpath_max_cycles      100
rpath_direction       1
cdft                  true
scf_guess             read
$end

$cdft
2
1 1 16
1
1 1 16 s
$end

$pcm
theory              cosmo
method              iswig
Radii               bondi
vdwScale            1.20
hpoints             110
heavypoints         110
$end

$solvent
dielectric 78.400000
$end

--------------------------------------------------------------

   23    -722.7154737052      9.42E-09 Convergence criterion met
 Total energy in the final basis set = -722.71547371
 Total job time:  863.25s(wall), 11694.63s(cpu)
        *  Thank you very much for using Q-Chem.  Have a nice day.  *
 Q-Chem 5.0, Q-Chem, Inc., Pleasanton, CA (2017)
 Q-Chem 5.0.2 for Intel X86 EM64T Linux

User input:
--------------------------------------------------------------

$molecule
read
$end

$rem
jobtype               force
method                wb97x-v
basis                 def2-tzvpd
symmetry              off
sym_ignore            true
incdft                false
incfock               0
!scf_algorithm        diis_gdm
scf_guess             read
scf_convergence       8
thresh                14
unrestricted          true
!purecart             112
max_scf_cycles        1000
geom_opt_max_cycles   500
geom_opt_dmax         100
geom_opt_tol_gradient 10
solvent_method        pcm
ideriv                1
rpath_tol_displacement 1000
rpath_max_cycles      100
rpath_direction       1
$end

$pcm
theory              cosmo
method              iswig
Radii               bondi
vdwScale            1.20
hpoints             110
heavypoints         110
$end

$solvent
dielectric 78.400000
$end

--------------------------------------------------------------

             Standard Nuclear Orientation (Angstroms)
    I     Atom           X                Y                Z
 ----------------------------------------------------------------
    1      C       0.0419821171     0.8003944009    -1.8234001406
    2      C       0.3426798993     0.9748480439    -3.3211962284
    3      O       0.0818877966     2.1103022940    -3.8096214806
    4      O       0.8059829744     0.0010116675    -3.9685743309
    5      C       0.5482132115    -0.4902201761    -1.1885252473
    6      H      -1.0473033432     0.8794160415    -1.7208851867
    7      H       0.4540161237     1.6720837245    -1.3044971239
    8      C       0.2902628250    -0.6758488962     0.3291518812
    9      H       1.6310711312    -0.5772805451    -1.3326156524
   10      H       0.0901414571    -1.3521610599    -1.6881704982
   11      C      -1.2160013599    -0.6114876526     0.6474536995
   12      H      -1.6607038716     0.3481123830     0.3635379005
   13      H      -1.3562403740    -0.7540880064     1.7227448493
   14      H      -1.7454893413    -1.4120830982     0.1182315786
   15      O       0.8415423414    -1.8326495073     0.7844409701
   16      O       0.9353452673     0.4754292411     0.9302377390
   17      O       1.1964523849    -0.0951238611     2.6224434994
   18      H       1.1653693858    -1.0068507851     2.2095782615
   19      O      -0.7883892504     0.4547970681     4.1640133589
   20      H      -0.0305211272     0.2150959747     3.5198819388
   21      O      -1.0940106710     1.7664146920     3.8659609795
 ----------------------------------------------------------------

   23    -722.7556344083      5.20E-09 Convergence criterion met
 Total energy in the final basis set = -722.75563441

                    Orbital Energies (a.u.)
 --------------------------------------------------------------

 Alpha MOs
 -- Occupied --
-19.279 -19.262 -19.135 -19.132 -19.127 -19.123 -19.085 -10.334
-10.295 -10.234 -10.221 -10.217  -1.234  -1.137  -1.090  -1.042
 -1.003  -0.964  -0.920  -0.869  -0.804  -0.741  -0.621  -0.602
 -0.594  -0.554  -0.542  -0.537  -0.525  -0.511  -0.501  -0.487
 -0.481  -0.477  -0.465  -0.443  -0.437  -0.408  -0.403  -0.395
 -0.379  -0.351  -0.342  -0.333  -0.325  -0.303  -0.292  -0.275
 -0.230

 Beta MOs
 -- Occupied --
-19.288 -19.278 -19.135 -19.132 -19.112 -19.112 -19.085 -10.334
-10.295 -10.234 -10.221 -10.217  -1.261  -1.137  -1.072  -1.042
 -0.989  -0.964  -0.935  -0.865  -0.803  -0.739  -0.632  -0.596
 -0.593  -0.570  -0.558  -0.550  -0.535  -0.521  -0.507  -0.495
 -0.485  -0.475  -0.457  -0.434  -0.426  -0.407  -0.403  -0.395
 -0.384  -0.344  -0.342  -0.338  -0.332  -0.324  -0.292  -0.286
 -0.267

          Ground-State Mulliken Net Atomic Charges

     Atom                 Charge (a.u.)    Spin (a.u.)
  --------------------------------------------------------
      1 C                    -0.185156       0.007152
      2 C                    -0.006107      -0.000253
      3 O                    -0.720745       0.000016
      4 O                    -0.694011       0.000109
      5 C                    -0.280940       0.022141
      6 H                     0.181694      -0.000638
      7 H                     0.160988       0.000020
      8 C                     1.276479      -0.002120
      9 H                     0.125866       0.003456
     10 H                     0.163226       0.003455
     11 C                    -1.295688       0.000946
     12 H                     0.231335      -0.003010
     13 H                     0.181675       0.000041
     14 H                     0.234371      -0.001069
     15 O                    -1.045008       0.005140
     16 O                    -0.627415       0.562627
     17 O                    -0.873869       0.446069
     18 H                     0.296451      -0.029059
     19 O                    -0.199990      -0.307624
     20 H                     0.369489      -0.016864
     21 O                    -0.292645      -0.690535
  --------------------------------------------------------
  Sum of atomic charges =    -3.000000

                    Cartesian Multipole Moments
 -----------------------------------------------------------------
    Charge (ESU x 10^10)
               -14.4096
    Dipole Moment (Debye)
         X      -9.3734      Y      -2.8216      Z       3.3988
       Tot      10.3621
    Quadrupole Moments (Debye-Ang)
        XX     -96.8999     XY       8.0039     YY    -116.5755
        XZ       5.8161     YZ      16.2692     ZZ    -217.6670

 Total job time:  830.08s(wall), 11652.96s(cpu)
        *  Thank you very much for using Q-Chem.  Have a nice day.  *
