 Q-Chem 5.0, Q-Chem, Inc., Pleasanton, CA (2017)
 Q-Chem 5.0.2 for Intel X86 EM64T Linux

User input:
--------------------------------------------------------------
$molecule
-2 1
C        2.5555969670    1.4185141324    0.5530553217
O        3.0998565010    2.5030956891    0.2019613001
O        3.0684705252    0.5726459378    1.3305596566
C        1.1565355079    1.1524121971   -0.0237279748
H        0.4993451952    1.9505970925    0.3363626133
H        1.2194237969    1.2893375559   -1.1085083531
C        0.5554663822   -0.2049404231    0.3058808288
H        1.2295413973   -1.0002279946   -0.0362199656
H        0.4680898027   -0.3172869911    1.3926694146
C       -0.8247758546   -0.4751983106   -0.3092936272
O       -0.7893606519   -0.4049966769   -1.7103007167
H       -1.1991599101    0.5241570247   -1.7981638422
O       -1.7953815156    0.4992412367    0.1373700820
O       -1.8771704377    1.5667365887   -0.8463131839
C       -1.3498327283   -1.8287989832    0.1442835734
H       -2.3100628493   -2.0299314559   -0.3376963933
H       -0.6420729544   -2.6187439573   -0.1241717515
H       -1.4852043017   -1.8395100730    1.2301315186
$end

$rem
jobtype               force
method                wb97x-v
basis                 def2-tzvpd
symmetry              off
sym_ignore            true
incdft                false
incfock               0
!scf_algorithm        diis_gdm
scf_convergence       8
thresh                14
!purecart             112
max_scf_cycles        1000
geom_opt_max_cycles   500
geom_opt_dmax         100
geom_opt_tol_gradient 10
solvent_method        pcm
ideriv                1
rpath_tol_displacement 1000
rpath_max_cycles      50
rpath_direction       1
!scf_guess            read
scf_guess             read
geom_opt_hessian      read
$end

$pcm
theory              cosmo
method              iswig
Radii               bondi
vdwScale            1.20
hpoints             110
heavypoints         110
$end

$solvent
dielectric 78.400000
$end

--------------------------------------------------------------

             Standard Nuclear Orientation (Angstroms)
    I     Atom           X                Y                Z
 ----------------------------------------------------------------
    1      C       2.5555969670     1.4185141324     0.5530553217
    2      O       3.0998565010     2.5030956891     0.2019613001
    3      O       3.0684705252     0.5726459378     1.3305596566
    4      C       1.1565355079     1.1524121971    -0.0237279748
    5      H       0.4993451952     1.9505970925     0.3363626133
    6      H       1.2194237969     1.2893375559    -1.1085083531
    7      C       0.5554663822    -0.2049404231     0.3058808288
    8      H       1.2295413973    -1.0002279946    -0.0362199656
    9      H       0.4680898027    -0.3172869911     1.3926694146
   10      C      -0.8247758546    -0.4751983106    -0.3092936272
   11      O      -0.7893606519    -0.4049966769    -1.7103007167
   12      H      -1.1991599101     0.5241570247    -1.7981638422
   13      O      -1.7953815156     0.4992412367     0.1373700820
   14      O      -1.8771704377     1.5667365887    -0.8463131839
   15      C      -1.3498327283    -1.8287989832     0.1442835734
   16      H      -2.3100628493    -2.0299314559    -0.3376963933
   17      H      -0.6420729544    -2.6187439573    -0.1241717515
   18      H      -1.4852043017    -1.8395100730     1.2301315186
 ----------------------------------------------------------------

   14    -571.7251703192      8.68E-09 Convergence criterion met
 Total energy in the final basis set = -571.72517032

                    Orbital Energies (a.u.)
 --------------------------------------------------------------

 Alpha MOs
 -- Occupied --
-19.210 -19.175 -19.151 -19.138 -19.135 -10.341 -10.337 -10.241
-10.240 -10.239  -1.188  -1.140  -1.094  -1.045  -0.937  -0.878
 -0.831  -0.754  -0.651  -0.614  -0.600  -0.560  -0.556  -0.541
 -0.520  -0.507  -0.490  -0.483  -0.474  -0.452  -0.434  -0.430
 -0.420  -0.407  -0.364  -0.344  -0.334  -0.326  -0.321  -0.276

          Ground-State Mulliken Net Atomic Charges

     Atom                 Charge (a.u.)
  ----------------------------------------
      1 C                    -0.057861
      2 O                    -0.715638
      3 O                    -0.692400
      4 C                    -0.166786
      5 H                     0.229499
      6 H                     0.224662
      7 C                    -0.605155
      8 H                     0.214005
      9 H                     0.155094
     10 C                     1.229996
     11 O                    -0.592606
     12 H                     0.396457
     13 O                    -0.260340
     14 O                    -0.814368
     15 C                    -1.344508
     16 H                     0.257115
     17 H                     0.282218
     18 H                     0.260614
  ----------------------------------------
  Sum of atomic charges =    -2.000000

                    Cartesian Multipole Moments
 -----------------------------------------------------------------
    Charge (ESU x 10^10)
                -9.6064
    Dipole Moment (Debye)
         X      -7.8587      Y     -13.0253      Z       0.1843
       Tot      15.2136
    Quadrupole Moments (Debye-Ang)
        XX    -138.5836     XY     -16.7436     YY     -94.2658
        XZ     -19.8959     YZ      -1.7247     ZZ     -77.3483

 Total job time:  313.97s(wall), 4449.26s(cpu)
        *  Thank you very much for using Q-Chem.  Have a nice day.  *
