 Q-Chem 5.0, Q-Chem, Inc., Pleasanton, CA (2017)
 Q-Chem 5.0.2 for Intel X86 EM64T Linux

User input:
--------------------------------------------------------------
$molecule
-2 1
C        2.1217562363    1.7281259927    0.0674809121
O        2.9777767620    2.4671820194   -0.5620882945
O        1.8721532446    1.9407231616    1.3192592226
C        1.4111441030    0.6954570177   -0.6401376098
H       -0.1630680801    1.7630606841    0.2100272316
H        1.8497010636    0.4282357734   -1.6032882540
C        0.7194299893   -0.4342668646    0.0970169778
H        1.0779601520   -1.4145501996   -0.2514959519
H        0.9165467481   -0.3836679861    1.1742962461
C       -0.8127960817   -0.4720052473   -0.0928916135
O       -1.1189349232   -0.1873275399   -1.4271501771
H       -0.4143780851    0.4497132263   -1.6844262868
O       -1.4711151228    0.4826933368    0.7780643986
O       -1.1291494981    1.8231173939    0.4103226941
C       -1.4449215127   -1.7883778155    0.3121302124
H       -2.5287418966   -1.7515550339    0.1725323550
H       -1.0328619376   -2.5887187056   -0.3061529433
H       -1.2261658738   -2.0072268839    1.3605982011
$end

$rem
jobtype               freq
method                wb97x-v
basis                 def2-tzvpd
symmetry              off
sym_ignore            true
incdft                false
incfock               0
!scf_algorithm        diis_gdm
scf_convergence       8
thresh                14
!purecart             112
max_scf_cycles        1000
geom_opt_max_cycles   500
geom_opt_dmax         100
geom_opt_tol_gradient 10
solvent_method        pcm
ideriv                1
rpath_tol_displacement 1000
rpath_max_cycles      100
rpath_direction       1
!scf_guess            read
scf_guess             read
$end

$pcm
theory              cosmo
method              iswig
Radii               bondi
vdwScale            1.20
hpoints             110
heavypoints         110
$end

$solvent
dielectric 78.400000
$end

--------------------------------------------------------------

   18    -571.6738229670      5.07E-09 Convergence criterion met
 Total energy in the final basis set = -571.67382297
   16    -571.6738222043      8.82E-09 Convergence criterion met
 Total energy in the final basis set = -571.67382220
   15    -571.6738222494      8.46E-09 Convergence criterion met
 Total energy in the final basis set = -571.67382225
   15    -571.6738221627      8.53E-09 Convergence criterion met
 Total energy in the final basis set = -571.67382216
   15    -571.6738221107      8.82E-09 Convergence criterion met
 Total energy in the final basis set = -571.67382211
   15    -571.6738218878      9.44E-09 Convergence criterion met
 Total energy in the final basis set = -571.67382189
   16    -571.6738218838      2.61E-09 Convergence criterion met
 Total energy in the final basis set = -571.67382188
   16    -571.6738225239      2.74E-09 Convergence criterion met
 Total energy in the final basis set = -571.67382274
   17    -571.6738226887      3.44E-09 Convergence criterion met
 Total energy in the final basis set = -571.67382269
   17    -571.6738228689      5.08E-09 Convergence criterion met
 Total energy in the final basis set = -571.67382287
   17    -571.6738228586      4.46E-09 Convergence criterion met
 Total energy in the final basis set = -571.67382286
   17    -571.6738228660      6.22E-09 Convergence criterion met
 Total energy in the final basis set = -571.67382287
   17    -571.6738228556      4.37E-09 Convergence criterion met
 Total energy in the final basis set = -571.67382286
   17    -571.6738224076      4.65E-09 Convergence criterion met
 Total energy in the final basis set = -571.67382241
   17    -571.6738223812      2.06E-09 Convergence criterion met
 Total energy in the final basis set = -571.67382238

                    Orbital Energies (a.u.)
 --------------------------------------------------------------

 Alpha MOs
 -- Occupied --
-19.251 -19.242 -19.202 -19.106 -19.104 -10.353 -10.305 -10.250
-10.239 -10.181  -1.242  -1.148  -1.097  -1.010  -1.000  -0.879
 -0.836  -0.736  -0.695  -0.649  -0.583  -0.574  -0.560  -0.547
 -0.517  -0.508  -0.491  -0.483  -0.475  -0.468  -0.458  -0.433
 -0.423  -0.407  -0.391  -0.350  -0.318  -0.318  -0.295  -0.232

          Ground-State Mulliken Net Atomic Charges

     Atom                 Charge (a.u.)
  ----------------------------------------
      1 C                     0.057450
      2 O                    -0.824867
      3 O                    -0.788899
      4 C                    -1.084011
      5 H                     0.367744
      6 H                     0.275927
      7 C                     0.215085
      8 H                     0.255887
      9 H                     0.152991
     10 C                     0.659409
     11 O                    -0.522662
     12 H                     0.489343
     13 O                    -0.226141
     14 O                    -0.502684
     15 C                    -1.367826
     16 H                     0.281185
     17 H                     0.301740
     18 H                     0.260329
  ----------------------------------------
  Sum of atomic charges =    -2.000000

                    Cartesian Multipole Moments
 -----------------------------------------------------------------
    Charge (ESU x 10^10)
                -9.6064
    Dipole Moment (Debye)
         X     -13.2368      Y     -18.5265      Z      -1.3462
       Tot      22.8092
    Quadrupole Moments (Debye-Ang)
        XX    -120.8145     XY     -36.0031     YY    -105.3149
        XZ      -1.8818     YZ      -6.2562     ZZ     -80.4838

             Standard Nuclear Orientation (Angstroms)
    I     Atom           X                Y                Z
 ----------------------------------------------------------------
    1      C       2.1217562363     1.7281259927     0.0674809121
    2      O       2.9777767620     2.4671820194    -0.5620882945
    3      O       1.8721532446     1.9407231616     1.3192592226
    4      C       1.4111441030     0.6954570177    -0.6401376098
    5      H      -0.1630680801     1.7630606841     0.2100272316
    6      H       1.8497010636     0.4282357734    -1.6032882540
    7      C       0.7194299893    -0.4342668646     0.0970169778
    8      H       1.0779601520    -1.4145501996    -0.2514959519
    9      H       0.9165467481    -0.3836679861     1.1742962461
   10      C      -0.8127960817    -0.4720052473    -0.0928916135
   11      O      -1.1189349232    -0.1873275399    -1.4271501771
   12      H      -0.4143780851     0.4497132263    -1.6844262868
   13      O      -1.4711151228     0.4826933368     0.7780643986
   14      O      -1.1291494981     1.8231173939     0.4103226941
   15      C      -1.4449215127    -1.7883778155     0.3121302124
   16      H      -2.5287418966    -1.7515550339     0.1725323550
   17      H      -1.0328619376    -2.5887187056    -0.3061529433
   18      H      -1.2261658738    -2.0072268839     1.3605982011
 ----------------------------------------------------------------

 Frequency:      -325.03                  69.15                 108.00
 Force Cnst:      0.1000                 0.0159                 0.0526
 Red. Mass:       1.6065                 5.6282                 7.6609
 IR Intens:      112.623                  4.981                  1.323
 Frequency:       170.86                 195.82                 207.58
 Force Cnst:      0.0847                 0.0668                 0.0342
 Red. Mass:       4.9254                 2.9573                 1.3473
 IR Intens:        9.945                 17.722                  2.938
 Frequency:       251.80                 289.71                 325.41
 Force Cnst:      0.2061                 0.1546                 0.1999
 Red. Mass:       5.5164                 3.1262                 3.2044
 IR Intens:      122.369                  2.803                  4.570
 Frequency:       367.83                 392.22                 420.95
 Force Cnst:      0.2138                 0.2781                 0.2559
 Red. Mass:       2.6821                 3.0687                 2.4509
 IR Intens:       16.010                 41.424                  4.026
 Frequency:       527.00                 541.52                 575.32
 Force Cnst:      0.2481                 0.7631                 0.8497
 Red. Mass:       1.5163                 4.4166                 4.3570
 IR Intens:      249.592                 10.351                 56.123
 Frequency:       650.30                 674.95                 693.44
 Force Cnst:      0.6405                 1.5478                 0.3243
 Red. Mass:       2.5705                 5.7667                 1.1447
 IR Intens:       98.206                  2.450                 77.912
 Frequency:       800.87                 820.94                 863.33
 Force Cnst:      2.0170                 3.5922                 1.4476
 Red. Mass:       5.3374                 9.0466                 3.2964
 IR Intens:       39.445                126.316                 12.940
 Frequency:       880.39                 969.11                1012.01
 Force Cnst:      1.1192                 1.0427                 1.5946
 Red. Mass:       2.4509                 1.8843                 2.6426
 IR Intens:      135.477                 38.618                 11.700
 Frequency:      1037.34                1102.34                1112.23
 Force Cnst:      5.6082                 1.2565                 1.6690
 Red. Mass:       8.8456                 1.7549                 2.2899
 IR Intens:        6.027                 90.406                 18.813
 Frequency:      1153.42                1230.39                1242.20
 Force Cnst:      1.4454                 2.1177                 2.1905
 Red. Mass:       1.8441                 2.3742                 2.4094
 IR Intens:      187.198                227.940                181.834
 Frequency:      1270.35                1322.17                1387.48
 Force Cnst:      1.6630                 1.7923                 1.6039
 Red. Mass:       1.7490                 1.7402                 1.4140
 IR Intens:      666.233                156.674                264.546
 Frequency:      1402.57                1426.60                1439.54
 Force Cnst:      4.4358                 2.2540                 1.7063
 Red. Mass:       3.8271                 1.8798                 1.3976
 IR Intens:      795.691                664.605                225.305
 Frequency:      1468.62                1474.01                1477.86
 Force Cnst:      1.5536                 1.3474                 1.9884
 Red. Mass:       1.2226                 1.0525                 1.5452
 IR Intens:       24.049                  4.438                 15.383
 Frequency:      1530.72                3000.44                3064.57
 Force Cnst:      1.5406                 5.6625                 5.7326
 Red. Mass:       1.1160                 1.0676                 1.0360
 IR Intens:       92.698                135.703                 26.238
 Frequency:      3076.69                3106.15                3142.55
 Force Cnst:      6.1014                 6.1739                 6.4211
 Red. Mass:       1.0940                 1.0861                 1.1036
 IR Intens:       26.549                104.760                 30.833
 Frequency:      3152.36                3388.54                3459.67
 Force Cnst:      6.4587                 7.2335                 7.5122
 Red. Mass:       1.1031                 1.0692                 1.0652
 IR Intens:       26.082                608.385                972.542

 STANDARD THERMODYNAMIC QUANTITIES AT   298.15 K  AND     1.00 ATM

   This Molecule has  1 Imaginary Frequencies
   Zero point vibrational energy:       83.312 kcal/mol

   Atom    1 Element C  Has Mass   12.00000
   Atom    2 Element O  Has Mass   15.99491
   Atom    3 Element O  Has Mass   15.99491
   Atom    4 Element C  Has Mass   12.00000
   Atom    5 Element H  Has Mass    1.00783
   Atom    6 Element H  Has Mass    1.00783
   Atom    7 Element C  Has Mass   12.00000
   Atom    8 Element H  Has Mass    1.00783
   Atom    9 Element H  Has Mass    1.00783
   Atom   10 Element C  Has Mass   12.00000
   Atom   11 Element O  Has Mass   15.99491
   Atom   12 Element H  Has Mass    1.00783
   Atom   13 Element O  Has Mass   15.99491
   Atom   14 Element O  Has Mass   15.99491
   Atom   15 Element C  Has Mass   12.00000
   Atom   16 Element H  Has Mass    1.00783
   Atom   17 Element H  Has Mass    1.00783
   Atom   18 Element H  Has Mass    1.00783
   Molecular Mass:   148.037190 amu
   Principal axes and moments of inertia in amu*Bohr^2:
                             1           2           3
    Eigenvalues --      726.02242  2209.90889  2381.84179
          X               0.81007    -0.49532     0.31377
          Y               0.58588     0.66270    -0.46645
          Z               0.02311     0.56169     0.82703
   Rotational Symmetry Number is   1
   The Molecule is an Asymmetric Top
   Translational Enthalpy:        0.889 kcal/mol
   Rotational Enthalpy:           0.889 kcal/mol
   Vibrational Enthalpy:         87.698 kcal/mol
   gas constant (RT):             0.592 kcal/mol
   Translational Entropy:        40.887  cal/mol.K
   Rotational Entropy:           29.725  cal/mol.K
   Vibrational Entropy:          25.664  cal/mol.K

   Total Enthalpy:               90.068 kcal/mol
   Total Entropy:                96.276  cal/mol.K

 Total job time:  48351.17s(wall), 570693.31s(cpu)
        *  Thank you very much for using Q-Chem.  Have a nice day.  *
