 Q-Chem 5.0, Q-Chem, Inc., Pleasanton, CA (2017)
 Q-Chem 5.0.2 for Intel X86 EM64T Linux

User input:
--------------------------------------------------------------
$molecule
-2 1
C        1.6952718353    2.0017252797    0.0631193107
O        2.4989267610    2.8983697048   -0.3869269872
O        1.0709842412    2.2152733115    1.2036570712
C        1.4415285452    0.7911317163   -0.6388137798
H       -0.2787920933    1.7051783906    1.0871394238
H        2.1298125038    0.5734003597   -1.4555708839
C        0.8145821079   -0.3991916244    0.0481317451
H        1.2450687595   -1.3198868839   -0.3663895658
H        1.0062755648   -0.4214666919    1.1301682917
C       -0.7228578451   -0.5367579575   -0.1389202374
O       -1.0722591902    0.0182295376   -1.3698438433
H       -0.3210413207    0.6563406178   -1.5191289186
O       -1.4564670914    0.0932009469    0.9321656143
O       -1.2960966908    1.5109049736    0.9174789994
C       -1.1935260809   -1.9786655192   -0.0559762886
H       -2.2807401604   -2.0347381734   -0.1607567099
H       -0.7279027245   -2.5547198398   -0.8588759797
H       -0.9054861121   -2.4184346402    0.9032195479
$end

$rem
jobtype               force
method                wb97x-v
basis                 def2-tzvpd
symmetry              off
sym_ignore            true
incdft                false
incfock               0
!scf_algorithm        diis_gdm
scf_convergence       8
thresh                14
!purecart             112
max_scf_cycles        1000
geom_opt_max_cycles   500
geom_opt_dmax         100
geom_opt_tol_gradient 10
solvent_method        pcm
ideriv                1
rpath_tol_displacement 1000
rpath_max_cycles      50
rpath_direction       1
!scf_guess            read
scf_guess             read
geom_opt_hessian      read
$end

$pcm
theory              cosmo
method              iswig
Radii               bondi
vdwScale            1.20
hpoints             110
heavypoints         110
$end

$solvent
dielectric 78.400000
$end

--------------------------------------------------------------

             Standard Nuclear Orientation (Angstroms)
    I     Atom           X                Y                Z
 ----------------------------------------------------------------
    1      C       1.6952718353     2.0017252797     0.0631193107
    2      O       2.4989267610     2.8983697048    -0.3869269872
    3      O       1.0709842412     2.2152733115     1.2036570712
    4      C       1.4415285452     0.7911317163    -0.6388137798
    5      H      -0.2787920933     1.7051783906     1.0871394238
    6      H       2.1298125038     0.5734003597    -1.4555708839
    7      C       0.8145821079    -0.3991916244     0.0481317451
    8      H       1.2450687595    -1.3198868839    -0.3663895658
    9      H       1.0062755648    -0.4214666919     1.1301682917
   10      C      -0.7228578451    -0.5367579575    -0.1389202374
   11      O      -1.0722591902     0.0182295376    -1.3698438433
   12      H      -0.3210413207     0.6563406178    -1.5191289186
   13      O      -1.4564670914     0.0932009469     0.9321656143
   14      O      -1.2960966908     1.5109049736     0.9174789994
   15      C      -1.1935260809    -1.9786655192    -0.0559762886
   16      H      -2.2807401604    -2.0347381734    -0.1607567099
   17      H      -0.7279027245    -2.5547198398    -0.8588759797
   18      H      -0.9054861121    -2.4184346402     0.9032195479
 ----------------------------------------------------------------

   15    -571.6890467688      7.49E-09 Convergence criterion met
 Total energy in the final basis set = -571.68904677

                    Orbital Energies (a.u.)
 --------------------------------------------------------------

 Alpha MOs
 -- Occupied --
-19.237 -19.210 -19.191 -19.124 -19.110 -10.344 -10.310 -10.246
-10.238 -10.182  -1.220  -1.135  -1.108  -1.017  -0.983  -0.869
 -0.834  -0.739  -0.680  -0.634  -0.590  -0.572  -0.558  -0.547
 -0.510  -0.504  -0.488  -0.482  -0.480  -0.467  -0.448  -0.425
 -0.413  -0.393  -0.374  -0.345  -0.331  -0.324  -0.304  -0.238

          Ground-State Mulliken Net Atomic Charges

     Atom                 Charge (a.u.)
  ----------------------------------------
      1 C                     0.220283
      2 O                    -0.799598
      3 O                    -0.795197
      4 C                    -0.986403
      5 H                     0.376435
      6 H                     0.265304
      7 C                    -0.118520
      8 H                     0.274961
      9 H                     0.179717
     10 C                     0.837189
     11 O                    -0.541009
     12 H                     0.398712
     13 O                    -0.254331
     14 O                    -0.514326
     15 C                    -1.368658
     16 H                     0.280076
     17 H                     0.293227
     18 H                     0.252137
  ----------------------------------------
  Sum of atomic charges =    -2.000000

                    Cartesian Multipole Moments
 -----------------------------------------------------------------
    Charge (ESU x 10^10)
                -9.6064
    Dipole Moment (Debye)
         X      -7.1877      Y     -19.3187      Z      -1.2816
       Tot      20.6523
    Quadrupole Moments (Debye-Ang)
        XX    -104.5889     XY     -29.6974     YY    -113.2751
        XZ       2.5243     YZ      -4.9092     ZZ     -79.2631

 Total job time:  349.63s(wall), 5003.86s(cpu)
        *  Thank you very much for using Q-Chem.  Have a nice day.  *
