 Q-Chem 5.0, Q-Chem, Inc., Pleasanton, CA (2017)
 Q-Chem 5.0.2 for Intel X86 EM64T Linux

User input:
--------------------------------------------------------------
$molecule
-2 1
C       -1.5178854514   -0.0283642891    0.5759557695
C        0.2057517228    0.6374386224   -0.9106966901
C        1.1033299788   -0.0121614035   -1.9357972493
H       -0.4062673118    1.4276411345   -1.3542945071
H        0.7824392374    1.0514729703   -0.0819866210
H        1.7020215162    0.7773466924   -2.4066561717
O       -0.6784452464   -0.3883704729   -0.3959347158
C       -2.3665865351   -1.1810588394    1.0325207710
H       -3.0458087513   -0.8532297096    1.8178725741
H       -2.9342699984   -1.5748418960    0.1857639995
H       -1.7225145584   -1.9819063138    1.4046270501
O       -1.5730511352    1.0986741653    1.0231862026
H        0.5078300706   -0.4764440119   -2.7269476219
C        2.0915527804   -1.0448562020   -1.3631982181
O        2.4715895196   -1.9504925740   -2.1500995982
O        2.4728232479   -0.8923432441   -0.1756195532
O        3.7787661804    2.2239690468   -0.2960481101
H        3.3677747961    1.3523399108   -0.2601047289
$end

$rem
jobtype               freq
method                wb97x-v
basis                 def2-tzvpd
symmetry              off
sym_ignore            true
incdft                false
incfock               0
!scf_algorithm        diis_gdm
scf_convergence       8
thresh                14
!purecart             112
max_scf_cycles        1000
geom_opt_max_cycles   500
geom_opt_dmax         100
geom_opt_tol_gradient 10
solvent_method        pcm
ideriv                1
rpath_tol_displacement 1000
rpath_max_cycles      100
rpath_direction       1
!scf_guess            read
scf_guess             read
$end

$pcm
theory              cosmo
method              iswig
Radii               bondi
vdwScale            1.20
hpoints             110
heavypoints         110
$end

$solvent
dielectric 78.400000
$end

--------------------------------------------------------------

   17    -571.8142956476      9.88E-09 Convergence criterion met
 Total energy in the final basis set = -571.81429565
   16    -571.8142948714      6.50E-09 Convergence criterion met
 Total energy in the final basis set = -571.81429487
   14    -571.8142948894      9.05E-09 Convergence criterion met
 Total energy in the final basis set = -571.81429489
   15    -571.8142940478      7.01E-09 Convergence criterion met
 Total energy in the final basis set = -571.81429405
   14    -571.8142940411      6.72E-09 Convergence criterion met
 Total energy in the final basis set = -571.81429404
   14    -571.8142948397      7.94E-09 Convergence criterion met
 Total energy in the final basis set = -571.81429484
   14    -571.8142948205      7.18E-09 Convergence criterion met
 Total energy in the final basis set = -571.81429482
   15    -571.8142946891      9.80E-09 Convergence criterion met
 Total energy in the final basis set = -571.81429564
   17    -571.8142956418      2.29E-09 Convergence criterion met
 Total energy in the final basis set = -571.81429564
   17    -571.8142954695      2.41E-09 Convergence criterion met
 Total energy in the final basis set = -571.81429547
   16    -571.8142954680      7.61E-09 Convergence criterion met
 Total energy in the final basis set = -571.81429547
   16    -571.8142948813      8.15E-09 Convergence criterion met
 Total energy in the final basis set = -571.81429488
   16    -571.8142948816      3.90E-09 Convergence criterion met
 Total energy in the final basis set = -571.81429488
   17    -571.8142956377      1.88E-09 Convergence criterion met
 Total energy in the final basis set = -571.81429564
   17    -571.8142956391      2.27E-09 Convergence criterion met
 Total energy in the final basis set = -571.81429564

                    Orbital Energies (a.u.)
 --------------------------------------------------------------

 Alpha MOs
 -- Occupied --
-19.255 -19.200 -19.142 -19.141 -19.088 -10.402 -10.344 -10.314
-10.268 -10.255  -1.240  -1.149  -1.144  -1.053  -0.960  -0.915
 -0.866  -0.768  -0.686  -0.625  -0.610  -0.601  -0.582  -0.554
 -0.537  -0.526  -0.511  -0.509  -0.486  -0.469  -0.457  -0.447
 -0.441  -0.411  -0.388  -0.349  -0.339  -0.333  -0.309  -0.308

          Ground-State Mulliken Net Atomic Charges

     Atom                 Charge (a.u.)
  ----------------------------------------
      1 C                     0.455570
      2 C                    -0.275615
      3 C                    -0.082238
      4 H                     0.310891
      5 H                     0.169609
      6 H                     0.231332
      7 O                    -0.183583
      8 C                    -0.732338
      9 H                     0.237420
     10 H                     0.242700
     11 H                     0.242477
     12 O                    -0.534143
     13 H                     0.232169
     14 C                     0.127000
     15 O                    -0.721350
     16 O                    -0.683296
     17 O                    -1.125411
     18 H                     0.088806
  ----------------------------------------
  Sum of atomic charges =    -2.000000

                    Cartesian Multipole Moments
 -----------------------------------------------------------------
    Charge (ESU x 10^10)
                -9.6064
    Dipole Moment (Debye)
         X     -30.7624      Y      -6.2336      Z       4.7963
       Tot      31.7519
    Quadrupole Moments (Debye-Ang)
        XX    -170.2527     XY     -18.1930     YY    -109.3563
        XZ      19.7097     YZ     -14.8963     ZZ     -77.5955

             Standard Nuclear Orientation (Angstroms)
    I     Atom           X                Y                Z
 ----------------------------------------------------------------
    1      C      -1.5178854514    -0.0283642891     0.5759557695
    2      C       0.2057517228     0.6374386224    -0.9106966901
    3      C       1.1033299788    -0.0121614035    -1.9357972493
    4      H      -0.4062673118     1.4276411345    -1.3542945071
    5      H       0.7824392374     1.0514729703    -0.0819866210
    6      H       1.7020215162     0.7773466924    -2.4066561717
    7      O      -0.6784452464    -0.3883704729    -0.3959347158
    8      C      -2.3665865351    -1.1810588394     1.0325207710
    9      H      -3.0458087513    -0.8532297096     1.8178725741
   10      H      -2.9342699984    -1.5748418960     0.1857639995
   11      H      -1.7225145584    -1.9819063138     1.4046270501
   12      O      -1.5730511352     1.0986741653     1.0231862026
   13      H       0.5078300706    -0.4764440119    -2.7269476219
   14      C       2.0915527804    -1.0448562020    -1.3631982181
   15      O       2.4715895196    -1.9504925740    -2.1500995982
   16      O       2.4728232479    -0.8923432441    -0.1756195532
   17      O       3.7787661804     2.2239690468    -0.2960481101
   18      H       3.3677747961     1.3523399108    -0.2601047289
 ----------------------------------------------------------------

 Frequency:        24.32                  36.89                  38.01
 Force Cnst:      0.0033                 0.0019                 0.0028
 Red. Mass:       9.3955                 2.3405                 3.2563
 IR Intens:       35.621                  1.396                  1.892
 Frequency:        50.15                  53.14                  80.45
 Force Cnst:      0.0045                 0.0066                 0.0162
 Red. Mass:       3.0205                 3.9591                 4.2520
 IR Intens:        4.290                 18.531                 43.963
 Frequency:       101.84                 172.11                 198.14
 Force Cnst:      0.0538                 0.0857                 0.0856
 Red. Mass:       8.8046                 4.9111                 3.7010
 IR Intens:        4.885                  6.237                  5.087
 Frequency:       278.88                 341.59                 346.68
 Force Cnst:      0.1063                 0.1226                 0.1082
 Red. Mass:       2.3202                 1.7828                 1.5273
 IR Intens:       10.010                 65.452                 58.030
 Frequency:       405.87                 430.55                 538.18
 Force Cnst:      0.1029                 0.2906                 0.8379
 Red. Mass:       1.0601                 2.6608                 4.9099
 IR Intens:      128.223                  4.428                 39.653
 Frequency:       595.10                 617.74                 647.00
 Force Cnst:      0.6831                 0.5630                 1.1384
 Red. Mass:       3.2736                 2.5041                 4.6158
 IR Intens:       17.868                  7.435                 12.932
 Frequency:       671.72                 865.76                 877.23
 Force Cnst:      0.7592                 1.3923                 1.8270
 Red. Mass:       2.8559                 3.1527                 4.0296
 IR Intens:       15.619                 24.471                 18.154
 Frequency:       977.88                1009.34                1020.29
 Force Cnst:      2.1950                 1.4386                 1.0400
 Red. Mass:       3.8959                 2.3967                 1.6957
 IR Intens:        4.275                 27.550                  9.808
 Frequency:      1068.59                1071.91                1110.20
 Force Cnst:      1.3299                 1.6099                 1.6712
 Red. Mass:       1.9767                 2.3782                 2.3013
 IR Intens:       45.027                115.416                 38.663
 Frequency:      1232.47                1276.13                1294.52
 Force Cnst:      1.0962                 1.1707                 2.8826
 Red. Mass:       1.2248                 1.2201                 2.9195
 IR Intens:       14.644                 14.653                653.425
 Frequency:      1348.33                1397.44                1422.20
 Force Cnst:      1.8579                 1.5847                 1.9978
 Red. Mass:       1.7345                 1.3773                 1.6764
 IR Intens:       41.912                 73.751                132.655
 Frequency:      1442.66                1445.90                1452.88
 Force Cnst:      1.8855                 2.9238                 1.3182
 Red. Mass:       1.5376                 2.3737                 1.0599
 IR Intens:      134.950                166.292                 26.029
 Frequency:      1460.60                1490.47                1599.74
 Force Cnst:      1.3115                 1.4641                15.4496
 Red. Mass:       1.0434                 1.1186                10.2463
 IR Intens:       12.780                 25.435               1288.676
 Frequency:      1763.03                3066.65                3078.64
 Force Cnst:     19.9806                 5.8917                 5.7893
 Red. Mass:      10.9103                 1.0633                 1.0367
 IR Intens:      588.448                 14.208                  0.454
 Frequency:      3089.21                3118.36                3151.64
 Force Cnst:      5.9662                 6.3061                 6.4701
 Red. Mass:       1.0611                 1.1007                 1.1056
 IR Intens:       38.486                 22.400                 31.182
 Frequency:      3151.86                3188.12                3821.15
 Force Cnst:      6.4463                 6.6168                 9.1787
 Red. Mass:       1.1014                 1.1049                 1.0669
 IR Intens:        0.540                  9.146                 18.500

 STANDARD THERMODYNAMIC QUANTITIES AT   298.15 K  AND     1.00 ATM

   This Molecule has  0 Imaginary Frequencies
   Zero point vibrational energy:       82.803 kcal/mol

   Atom    1 Element C  Has Mass   12.00000
   Atom    2 Element C  Has Mass   12.00000
   Atom    3 Element C  Has Mass   12.00000
   Atom    4 Element H  Has Mass    1.00783
   Atom    5 Element H  Has Mass    1.00783
   Atom    6 Element H  Has Mass    1.00783
   Atom    7 Element O  Has Mass   15.99491
   Atom    8 Element C  Has Mass   12.00000
   Atom    9 Element H  Has Mass    1.00783
   Atom   10 Element H  Has Mass    1.00783
   Atom   11 Element H  Has Mass    1.00783
   Atom   12 Element O  Has Mass   15.99491
   Atom   13 Element H  Has Mass    1.00783
   Atom   14 Element C  Has Mass   12.00000
   Atom   15 Element O  Has Mass   15.99491
   Atom   16 Element O  Has Mass   15.99491
   Atom   17 Element O  Has Mass   15.99491
   Atom   18 Element H  Has Mass    1.00783
   Molecular Mass:   148.037190 amu
   Principal axes and moments of inertia in amu*Bohr^2:
                             1           2           3
    Eigenvalues --     1133.16433  2702.92629  3357.57304
          X               0.92889     0.12978     0.34688
          Y               0.02537     0.91210    -0.40918
          Z              -0.36949     0.38888     0.84395
   Rotational Symmetry Number is   1
   The Molecule is an Asymmetric Top
   Translational Enthalpy:        0.889 kcal/mol
   Rotational Enthalpy:           0.889 kcal/mol
   Vibrational Enthalpy:         89.011 kcal/mol
   gas constant (RT):             0.592 kcal/mol
   Translational Entropy:        40.887  cal/mol.K
   Rotational Entropy:           30.709  cal/mol.K
   Vibrational Entropy:          47.308  cal/mol.K

   Total Enthalpy:               91.381 kcal/mol
   Total Entropy:               118.904  cal/mol.K

 Total job time:  35718.08s(wall), 493710.02s(cpu)
        *  Thank you very much for using Q-Chem.  Have a nice day.  *
